
    -----------------------------------------------------------------------
          Psi4: An Open-Source Ab Initio Electronic Structure Package
                               Psi4 1.2a1.dev936 

                         Git: Rev {master} d7752aa dirty


    R. M. Parrish, L. A. Burns, D. G. A. Smith, A. C. Simmonett,
    A. E. DePrince III, E. G. Hohenstein, U. Bozkaya, A. Yu. Sokolov,
    R. Di Remigio, R. M. Richard, J. F. Gonthier, A. M. James,
    H. R. McAlexander, A. Kumar, M. Saitow, X. Wang, B. P. Pritchard,
    P. Verma, H. F. Schaefer III, K. Patkowski, R. A. King, E. F. Valeev,
    F. A. Evangelista, J. M. Turney, T. D. Crawford, and C. D. Sherrill,
    J. Chem. Theory Comput. 13(7) pp 3185--3197 (2017).
    (doi: 10.1021/acs.jctc.7b00174)

    -----------------------------------------------------------------------


    Psi4 started on: Monday, 07 May 2018 05:10PM

    Process ID:  10351
    PSIDATADIR: /edfs/users/namvu/software/psi4/install/intel-release/share/psi4
    Memory:     500.0 MiB
    Threads:    6
    
  ==> Input File <==

--------------------------------------------------------------------------
# PYTHONPATH must include directory above plugin directory.
#     Define either externally or here, then import plugin.
sys.path.insert(0, "/edfs/users/namvu/v2rdm_casscf_public")
import v2rdm_casscf
sys.path.insert(0, './..')
import erpa 

memory 3000 mb
molecule mol {
0 1
H
H 1  R 
unit Bohr

}
Rvals=[1.0, 1.5, 2.0, 2.5, 3.0, 3.5, 4.0, 4.5, 5.0, 5.5, 6.0, 6.5, 7.0, 7.5, 8.0, 8.5, 9.0]

set {
  basis cc-pvtz
  scf_type df
  d_convergence 1e-8
  reference rohf
}

set v2rdm_casscf{


  positivity dqg

  tpdm_write_full true
  constrain_spin true

  r_convergence  1e-5
  e_convergence  1e-4
  cg_convergence 1e-6
  maxiter 1000000

  optimize_orbitals true
  orbopt_active_active_rotations false
  semicanonicalize_orbitals false

  mu_update_frequency 500

  restricted_docc  [ 1,0,0,0,0,0,0,0 ]
  active           [ 0,0,0,0,0,0,0,0 ]
  nat_orbs true
}

set erpa {

  pruning_threshold 1e-6
  number_coefficients 20
  coefficient_threshold 0.005
  spin_adapt_erpa true

 }
for R in Rvals:
  mol.R = R
  en,wfn = energy('v2rdm-casscf',return_wfn=True)
  energy('erpa',ref_wfn=wfn)

--------------------------------------------------------------------------

  Memory set to   2.794 GiB by Python driver.
Molecule: geometry: Molecule is not complete, please use 'update_geometry'
                    once all variables are set.
Molecule: Setting geometry variable R to 1.000000

*** tstart() called on ed4
*** at Mon May  7 17:10:46 2018

   => Loading Basis Set <=

    Name: CC-PVTZ
    Role: ORBITAL
    Keyword: BASIS
    atoms 1-2 entry H          line    23 file /edfs/users/namvu/software/psi4/install/intel-release/share/psi4/basis/cc-pvtz.gbs 


         ---------------------------------------------------------
                                   SCF
            by Justin Turney, Rob Parrish, Andy Simmonett
                             and Daniel Smith
                             ROHF Reference
                        6 Threads,   2861 MiB Core
         ---------------------------------------------------------

  ==> Geometry <==

    Molecular point group: d2h
    Full point group: D_inf_h

    Geometry (in Bohr), charge = 0, multiplicity = 1:

       Center              X                  Y                   Z               Mass       
    ------------   -----------------  -----------------  -----------------  -----------------
           H          0.000000000000     0.000000000000    -0.500000000000     1.007825032070
           H          0.000000000000     0.000000000000     0.500000000000     1.007825032070

  Running in d2h symmetry.

  Rotational constants: A = ************  B =    119.46456  C =    119.46456 [cm^-1]
  Rotational constants: A = ************  B = 3581457.38979  C = 3581457.38979 [MHz]
  Nuclear repulsion =    1.000000000000000

  Charge       = 0
  Multiplicity = 1
  Electrons    = 2
  Nalpha       = 1
  Nbeta        = 1

  ==> Algorithm <==

  SCF Algorithm Type is DF.
  DIIS enabled.
  MOM disabled.
  Fractional occupation disabled.
  Guess Type is GWH.
  Energy threshold   = 1.00e-08
  Density threshold  = 1.00e-08
  Integral threshold = 0.00e+00

  ==> Primary Basis <==

  Basis Set: CC-PVTZ
    Blend: CC-PVTZ
    Number of shells: 12
    Number of basis function: 28
    Number of Cartesian functions: 30
    Spherical Harmonics?: true
    Max angular momentum: 2

   => Loading Basis Set <=

    Name: (CC-PVTZ AUX)
    Role: JKFIT
    Keyword: DF_BASIS_SCF
    atoms 1-2 entry H          line    51 file /edfs/users/namvu/software/psi4/install/intel-release/share/psi4/basis/cc-pvtz-jkfit.gbs 

  ==> Pre-Iterations <==

   -------------------------------------------------------
    Irrep   Nso     Nmo     Nalpha   Nbeta   Ndocc  Nsocc
   -------------------------------------------------------
     Ag         7       7       0       0       0       0
     B1g        1       1       0       0       0       0
     B2g        3       3       0       0       0       0
     B3g        3       3       0       0       0       0
     Au         1       1       0       0       0       0
     B1u        7       7       0       0       0       0
     B2u        3       3       0       0       0       0
     B3u        3       3       0       0       0       0
   -------------------------------------------------------
    Total      28      28       1       1       1       0
   -------------------------------------------------------

  ==> Integral Setup <==

  ==> DFJK: Density-Fitted J/K Matrices <==

    J tasked:                  Yes
    K tasked:                  Yes
    wK tasked:                  No
    OpenMP threads:              6
    Integrals threads:           6
    Memory (MB):              2145
    Algorithm:                Core
    Integral Cache:           SAVE
    Schwarz Cutoff:          1E-12
    Fitting Condition:       1E-12

   => Auxiliary Basis Set <=

  Basis Set: (CC-PVTZ AUX)
    Blend: CC-PVTZ-JKFIT
    Number of shells: 20
    Number of basis function: 60
    Number of Cartesian functions: 70
    Spherical Harmonics?: true
    Max angular momentum: 3

  Minimum eigenvalue in the overlap matrix is 3.9722018017E-04.
  Using Symmetric Orthogonalization.

  SCF Guess: Generalized Wolfsberg-Helmholtz.

  ==> Iterations <==

                           Total Energy        Delta E     RMS |[F,P]|

    Occupation by irrep:
             Ag   B1g   B2g   B3g    Au   B1u   B2u   B3u 
    DOCC [     1,    0,    0,    0,    0,    0,    0,    0 ]
    SOCC [     0,    0,    0,    0,    0,    0,    0,    0 ]

   @DF-ROHF iter   1:     9.57465730581961    9.57466e+00   2.14225e-01 
   @DF-ROHF iter   2:    -1.07693774010544   -1.06516e+01   1.24873e-02 DIIS
   @DF-ROHF iter   3:    -1.08356682284115   -6.62908e-03   1.60816e-03 DIIS
   @DF-ROHF iter   4:    -1.08374361366553   -1.76791e-04   1.22492e-04 DIIS
   @DF-ROHF iter   5:    -1.08374519870532   -1.58504e-06   5.60031e-06 DIIS
   @DF-ROHF iter   6:    -1.08374520169783   -2.99251e-09   3.96276e-07 DIIS
   @DF-ROHF iter   7:    -1.08374520171490   -1.70730e-11   3.14497e-08 DIIS
   @DF-ROHF iter   8:    -1.08374520171504   -1.38556e-13   1.28085e-09 DIIS

  ==> Post-Iterations <==

    Orbital Energies (a.u.)
    -----------------------

    Doubly Occupied:                                                      

       1Ag    -0.669365  

    Singly Occupied:                                                      

    

    Virtual:                                                              

       1B1u    0.190097     2Ag     0.284919     2B1u    0.701954  
       1B3u    0.720045     1B2u    0.720045     3Ag     1.137952  
       1B3g    1.138065     1B2g    1.138065     3B1u    1.583482  
       4Ag     2.258538     4B1u    2.753501     1B1g    3.241560  
       5Ag     3.241560     2B2u    3.508861     2B3u    3.508861  
       2B3g    3.664959     2B2g    3.664959     6Ag     3.728670  
       1Au     4.306976     5B1u    4.306976     3B2u    4.335448  
       3B3u    4.335448     6B1u    5.171674     7Ag     6.686477  
       3B3g    6.739386     3B2g    6.739386     7B1u    9.224174  

    Final Occupation by Irrep:
             Ag   B1g   B2g   B3g    Au   B1u   B2u   B3u 
    DOCC [     1,    0,    0,    0,    0,    0,    0,    0 ]
    SOCC [     0,    0,    0,    0,    0,    0,    0,    0 ]

  Energy converged.

  @DF-ROHF Final Energy:    -1.08374520171504

   => Energetics <=

    Nuclear Repulsion Energy =              1.0000000000000000
    One-Electron Energy =                  -2.8287595954226479
    Two-Electron Energy =                   0.7450143937076080
    Total Energy =                         -1.0837452017150397



Properties will be evaluated at   0.000000,   0.000000,   0.000000 Bohr

Properties computed using the SCF density matrix

  Nuclear Dipole Moment: (a.u.)
     X:     0.0000      Y:     0.0000      Z:     0.0000

  Electronic Dipole Moment: (a.u.)
     X:     0.0000      Y:     0.0000      Z:     0.0000

  Dipole Moment: (a.u.)
     X:     0.0000      Y:     0.0000      Z:     0.0000     Total:     0.0000

  Dipole Moment: (Debye)
     X:     0.0000      Y:     0.0000      Z:     0.0000     Total:     0.0000


*** tstop() called on ed4 at Mon May  7 17:10:47 2018
Module time:
	user time   =       2.03 seconds =       0.03 minutes
	system time =       0.12 seconds =       0.00 minutes
	total time  =          1 seconds =       0.02 minutes
Total time:
	user time   =       2.03 seconds =       0.03 minutes
	system time =       0.12 seconds =       0.00 minutes
	total time  =          1 seconds =       0.02 minutes

Reading options from the V2RDM_CASSCF block
Calling plugin v2rdm_casscf.so.



*** tstart() called on ed4
*** at Mon May  7 17:10:47 2018



        ****************************************************
        *                                                  *
        *    v2RDM-CASSCF (PRIVATE)                        *
        *                                                  *
        *    A variational 2-RDM-driven approach to the    *
        *    active space self-consistent field method     *
        *                                                  *
        ****************************************************


        The following papers should be cited when using v2RDM-CASSCF:

        J. Fosso-Tande, D. R. Nascimento, and A. E. DePrince III,
        Mol. Phys. 114, 423-430 (2015).

            URL: http://dx.doi.org/10.1080/00268976.2015.1078008

        J. Fosso-Tande, T.-S. Nguyen, G. Gidofalvi, and
        A. E. DePrince III, J. Chem. Theory Comput. accepted (2016).

            URL: http://dx.doi.org/10.1021/acs.jctc.6b00190



  ==> Convergence parameters <==

        r_convergence:                      1.000e-05
        e_convergence:                      1.000e-04
        cg_convergence:                     1.000e-06
        maxiter:                              1000000
        cg_maxiter:                             10000

  ==> Active space details <==

        Number of frozen core orbitals:             0
        Number of restricted occupied orbitals:     1
        Number of active occupied orbitals:         0
        Number of active virtual orbitals:          0
        Number of restricted virtual orbitals:     27
        Number of frozen virtual orbitals:          0

        Irrep:             Ag, B1g, B2g, B3g,  Au, B1u, B2u, B3u 
 
        frozen_docc     [   0,   0,   0,   0,   0,   0,   0,   0 ]
        restricted_docc [   1,   0,   0,   0,   0,   0,   0,   0 ]
        active          [   0,   0,   0,   0,   0,   0,   0,   0 ]
        restricted_uocc [   6,   1,   3,   3,   1,   7,   3,   3 ]
        frozen_uocc     [   0,   0,   0,   0,   0,   0,   0,   0 ]

  ==> Orbital optimization parameters <==

        1-step algorithm:                    true
        g_convergence:                  1.000e-06
        e_convergence:                  1.000e-08
        maximum iterations:                    20
        frequency:                            500
        active-active rotations:            false
        exact diagonal Hessian:             false
        number of DIIS vectors:                 0
        print iteration info:               false

  ==> Memory requirements <==

        D2:                          0.00 mb
        Q2:                          0.00 mb
        G2:                          0.00 mb

        Total number of variables:              0
        Total number of constraints:            4
        Total memory requirements:        0.19 mb

    ==> Transform three-electron integrals <==


        Time for integral transformation:     0.05 s

    Molecular point group: d2h
    Full point group: D_inf_h

    Geometry (in Bohr), charge = 0, multiplicity = 1:

       Center              X                  Y                   Z               Mass       
    ------------   -----------------  -----------------  -----------------  -----------------
           H          0.000000000000     0.000000000000    -0.500000000000     1.007825032070
           H          0.000000000000     0.000000000000     0.500000000000     1.007825032070

  -AO BASIS SET INFORMATION:
    Name                   = CC-PVTZ
    Blend                  = CC-PVTZ
    Total number of shells = 12
    Number of primitives   = 16
    Number of AO           = 30
    Number of SO           = 28
    Maximum AM             = 2
    Spherical Harmonics    = TRUE

  -Contraction Scheme:
    Atom   Type   All Primitives // Shells:
   ------ ------ --------------------------
       1     H     5s 2p 1d // 3s 2p 1d 
       2     H     5s 2p 1d // 3s 2p 1d 

  ==> AO Basis Functions <==

    [ CC-PVTZ ]
    spherical
    ****
    H   1
    S   3 1.00
                        33.87000000           0.00606800
                         5.09500000           0.04530800
                         1.15900000           0.20282200
    S   1 1.00
                         0.32580000           1.00000000
    S   1 1.00
                         0.10270000           1.00000000
    P   1 1.00
                         1.40700000           1.00000000
    P   1 1.00
                         0.38800000           1.00000000
    D   1 1.00
                         1.05700000           1.00000000
    ****


    reference energy:          -1.083745201715
    frozen core energy:        -2.083745201715
    initial 2-RDM energy:      -1.083745201715

      oiter iiter        E(p)        E(d)      E gap)      mu     eps(p)     eps(d)

      v2RDM iterations converged!

      v2RDM total spin [S(S+1)]:             0.000000
    * v2RDM total energy:             -1.083745201715


 # Natural Orbital Occupation Numbers (alpha) #
 Irrep: 1
      1:  1.0000000
      2:  0.0000000
      3:  0.0000000
      4:  0.0000000
      5:  0.0000000
      6:  0.0000000
      7:  0.0000000

 Irrep: 2
      1:  0.0000000

 Irrep: 3
      1:  0.0000000
      2:  0.0000000
      3:  0.0000000

 Irrep: 4
      1:  0.0000000
      2:  0.0000000
      3:  0.0000000

 Irrep: 5
      1:  0.0000000

 Irrep: 6
      1:  0.0000000
      2:  0.0000000
      3:  0.0000000
      4:  0.0000000
      5:  0.0000000
      6:  0.0000000
      7:  0.0000000

 Irrep: 7
      1:  0.0000000
      2:  0.0000000
      3:  0.0000000

 Irrep: 8
      1:  0.0000000
      2:  0.0000000
      3:  0.0000000


 # Natural Orbital Occupation Numbers (beta) #
 Irrep: 1
      1:  1.0000000
      2:  0.0000000
      3:  0.0000000
      4:  0.0000000
      5:  0.0000000
      6:  0.0000000
      7:  0.0000000

 Irrep: 2
      1:  0.0000000

 Irrep: 3
      1:  0.0000000
      2:  0.0000000
      3:  0.0000000

 Irrep: 4
      1:  0.0000000
      2:  0.0000000
      3:  0.0000000

 Irrep: 5
      1:  0.0000000

 Irrep: 6
      1:  0.0000000
      2:  0.0000000
      3:  0.0000000
      4:  0.0000000
      5:  0.0000000
      6:  0.0000000
      7:  0.0000000

 Irrep: 7
      1:  0.0000000
      2:  0.0000000
      3:  0.0000000

 Irrep: 8
      1:  0.0000000
      2:  0.0000000
      3:  0.0000000


  ==> Iteration count <==

      Microiterations:                       0
      Macroiterations:                       0
      Orbital optimization steps:            0

  ==> Wall time <==

      Microiterations:                    0.00 s
      Macroiterations:                    0.00 s
      Orbital optimization:               0.00 s
      Total:                              0.01 s


*** tstop() called on ed4 at Mon May  7 17:10:47 2018
Module time:
	user time   =       0.37 seconds =       0.01 minutes
	system time =       0.01 seconds =       0.00 minutes
	total time  =          0 seconds =       0.00 minutes
Total time:
	user time   =       2.40 seconds =       0.04 minutes
	system time =       0.13 seconds =       0.00 minutes
	total time  =          1 seconds =       0.02 minutes

Reading options from the ERPA block
Calling plugin erpa.so.



*** tstart() called on ed4
*** at Mon May  7 17:10:47 2018



        *******************************************************
        *                                                     *
        *    ERPA                                             *
        *                                                     *
        *    Extended random phase approximation              *
        *                                                     *
        *    Eugene DePrince                                  *
        *                                                     *
        *******************************************************

  ==> Active space details <==

        Number of frozen core orbitals:             0
        Number of restricted occupied orbitals:     0
        Number of active occupied orbitals:         1
        Number of active virtual orbitals:         27
        Number of restricted virtual orbitals:      0
        Number of frozen virtual orbitals:          0

        Irrep:             Ag, B1g, B2g, B3g,  Au, B1u, B2u, B3u 
 
        frozen_docc     [   0,   0,   0,   0,   0,   0,   0,   0 ]
        restricted_docc [   0,   0,   0,   0,   0,   0,   0,   0 ]
        active          [   7,   1,   3,   3,   1,   7,   3,   3 ]
        restricted_uocc [   0,   0,   0,   0,   0,   0,   0,   0 ]
        frozen_uocc     [   0,   0,   0,   0,   0,   0,   0,   0 ]

  ==> Eigenvalue threshold below which A matrix is pruned: 1.00e-06
  ==> Number of expansion coeffients to be printed if all are above threshold:    20
  ==> Threshold above which excitation coefficients are printed: 5.00e-03


        Total memory requirements:       19.43 mb
        (note this estimate might be wrong when using four-index integrals ...)

    ==> Transform three-electron integrals <==


        Time for integral transformation:     0.30 s

    Molecular point group: d2h
    Full point group: D_inf_h

    Geometry (in Bohr), charge = 0, multiplicity = 1:

       Center              X                  Y                   Z               Mass       
    ------------   -----------------  -----------------  -----------------  -----------------
           H          0.000000000000     0.000000000000    -0.500000000000     1.007825032070
           H          0.000000000000     0.000000000000     0.500000000000     1.007825032070

  -AO BASIS SET INFORMATION:
    Name                   = CC-PVTZ
    Blend                  = CC-PVTZ
    Total number of shells = 12
    Number of primitives   = 16
    Number of AO           = 30
    Number of SO           = 28
    Maximum AM             = 2
    Spherical Harmonics    = TRUE

  -Contraction Scheme:
    Atom   Type   All Primitives // Shells:
   ------ ------ --------------------------
       1     H     5s 2p 1d // 3s 2p 1d 
       2     H     5s 2p 1d // 3s 2p 1d 

  ==> AO Basis Functions <==

    [ CC-PVTZ ]
    spherical
    ****
    H   1
    S   3 1.00
                        33.87000000           0.00606800
                         5.09500000           0.04530800
                         1.15900000           0.20282200
    S   1 1.00
                         0.32580000           1.00000000
    S   1 1.00
                         0.10270000           1.00000000
    P   1 1.00
                         1.40700000           1.00000000
    P   1 1.00
                         0.38800000           1.00000000
    D   1 1.00
                         1.05700000           1.00000000
    ****

    Molecular point group: d2h
    Full point group: D_inf_h

    Geometry (in Bohr), charge = 0, multiplicity = 1:

       Center              X                  Y                   Z               Mass       
    ------------   -----------------  -----------------  -----------------  -----------------
           H          0.000000000000     0.000000000000    -0.500000000000     1.007825032070
           H          0.000000000000     0.000000000000     0.500000000000     1.007825032070

  -AO BASIS SET INFORMATION:
    Name                   = CC-PVTZ
    Blend                  = CC-PVTZ
    Total number of shells = 12
    Number of primitives   = 16
    Number of AO           = 30
    Number of SO           = 28
    Maximum AM             = 2
    Spherical Harmonics    = TRUE

  -Contraction Scheme:
    Atom   Type   All Primitives // Shells:
   ------ ------ --------------------------
       1     H     5s 2p 1d // 3s 2p 1d 
       2     H     5s 2p 1d // 3s 2p 1d 

  ==> AO Basis Functions <==

    [ CC-PVTZ ]
    spherical
    ****
    H   1
    S   3 1.00
                        33.87000000           0.00606800
                         5.09500000           0.04530800
                         1.15900000           0.20282200
    S   1 1.00
                         0.32580000           1.00000000
    S   1 1.00
                         0.10270000           1.00000000
    P   1 1.00
                         1.40700000           1.00000000
    P   1 1.00
                         0.38800000           1.00000000
    D   1 1.00
                         1.05700000           1.00000000
    ****


    ==> ERPA expansion: aa/bb <==

    Molecular point group: d2h
    Full point group: D_inf_h

    Geometry (in Bohr), charge = 0, multiplicity = 1:

       Center              X                  Y                   Z               Mass       
    ------------   -----------------  -----------------  -----------------  -----------------
           H          0.000000000000     0.000000000000    -0.500000000000     1.007825032070
           H          0.000000000000     0.000000000000     0.500000000000     1.007825032070

  -AO BASIS SET INFORMATION:
    Name                   = CC-PVTZ
    Blend                  = CC-PVTZ
    Total number of shells = 12
    Number of primitives   = 16
    Number of AO           = 30
    Number of SO           = 28
    Maximum AM             = 2
    Spherical Harmonics    = TRUE

  -Contraction Scheme:
    Atom   Type   All Primitives // Shells:
   ------ ------ --------------------------
       1     H     5s 2p 1d // 3s 2p 1d 
       2     H     5s 2p 1d // 3s 2p 1d 

  ==> AO Basis Functions <==

    [ CC-PVTZ ]
    spherical
    ****
    H   1
    S   3 1.00
                        33.87000000           0.00606800
                         5.09500000           0.04530800
                         1.15900000           0.20282200
    S   1 1.00
                         0.32580000           1.00000000
    S   1 1.00
                         0.10270000           1.00000000
    P   1 1.00
                         1.40700000           1.00000000
    P   1 1.00
                         0.38800000           1.00000000
    D   1 1.00
                         1.05700000           1.00000000
    ****


    Symmetry:     0


    <<< warning >>> 
    reducing dimension of [ k*l, [H, j*i ] ] from   108 to    12

    state          energy (Eh)       ex energy (Eh)       ex energy (eV)       f, osc. strength
 NEWWAY       1      -0.394348182350       0.689397019365      18.759444264797       0.000000000000
                Transition Moment: X:   0.000000    Y:   0.000000   Z:   0.000000
                  1 ->   2             -1.001001
                  2 ->   1             -0.038720
                  4 ->   1             -0.018938
                  3 ->   1              0.014262
                  1 ->   4             -0.005039

 NEWWAY       2       0.324981236832       1.408726438548      38.333390435363       0.000000000000
                Transition Moment: X:   0.000000    Y:   0.000000   Z:   0.000000
                  1 ->   3             -0.999879
                  1 ->   4             -0.019100
                  1 ->   6              0.018812
                  3 ->   1             -0.014440
                  2 ->   1              0.013691
                  4 ->   1              0.007618
                  6 ->   1              0.005798

 NEWWAY       3       1.360629532058       2.444374733773      66.514809743090       0.000000000000
                Transition Moment: X:   0.000000    Y:   0.000000   Z:   0.000000
                  1 ->   4              1.000149
                  4 ->   1              0.023214
                  1 ->   3             -0.019932
                  2 ->   1              0.018885
                  1 ->   6             -0.014564
                  3 ->   1             -0.008274
                  1 ->   7             -0.007251

 NEWWAY       4       2.242034047087       3.325779248802      90.499042935253       0.000000000000
                Transition Moment: X:   0.000000    Y:   0.000000   Z:   0.000000
                  1 ->   5             -1.000033
                  5 ->   1             -0.008149

 NEWWAY       5       2.763482984777       3.847228186492     104.688388129345       0.000000000000
                Transition Moment: X:   0.000000    Y:   0.000000   Z:   0.000000
                  1 ->   6             -0.999597
                  1 ->   3             -0.018337
                  1 ->   7              0.018323
                  1 ->   4             -0.014960
                  6 ->   1             -0.006850
                  3 ->   1              0.005639

 NEWWAY       6       5.629269167762       6.713014369477     182.670384953290       0.000000000000
                Transition Moment: X:   0.000000    Y:   0.000000   Z:   0.000000
                  1 ->   7             -0.999821
                  1 ->   6             -0.018175
                  1 ->   4             -0.007378


    Symmetry:     1


    <<< warning >>> 
    reducing dimension of [ k*l, [H, j*i ] ] from    64 to     2

    state          energy (Eh)       ex energy (Eh)       ex energy (eV)       f, osc. strength
 NEWWAY       1       2.242034047087       3.325779248802      90.499042935254       0.000000000000
                Transition Moment: X:   0.000000    Y:   0.000000   Z:   0.000000
                  1 ->   8              1.000033
                  8 ->   1              0.008149


    Symmetry:     2


    <<< warning >>> 
    reducing dimension of [ k*l, [H, j*i ] ] from    96 to     6

    state          energy (Eh)       ex energy (Eh)       ex energy (eV)       f, osc. strength
 NEWWAY       1       0.309571192629       1.393316394344      37.914061866738       0.000000000000
                Transition Moment: X:   0.000000    Y:   0.000000   Z:   0.000000
                  1 ->   9              0.999831
                  1 ->  10             -0.020696
                  9 ->   1              0.008554

 NEWWAY       2       2.712944387429       3.796689589144     103.313163152230       0.000000000000
                Transition Moment: X:   0.000000    Y:   0.000000   Z:   0.000000
                  1 ->  10             -0.999618
                  1 ->   9             -0.020655
                  1 ->  11              0.019537
                 10 ->   1             -0.005091

 NEWWAY       3       5.672866506111       6.756611707826     183.856728694096       0.000000000000
                Transition Moment: X:   0.000000    Y:   0.000000   Z:   0.000000
                  1 ->  11              0.999817
                  1 ->  10              0.019529


    Symmetry:     3


    <<< warning >>> 
    reducing dimension of [ k*l, [H, j*i ] ] from    96 to     6

    state          energy (Eh)       ex energy (Eh)       ex energy (eV)       f, osc. strength
 NEWWAY       1       0.309571192629       1.393316394344      37.914061866734       0.000000000000
                Transition Moment: X:   0.000000    Y:   0.000000   Z:   0.000000
                  1 ->  12             -0.999831
                  1 ->  13              0.020696
                 12 ->   1             -0.008554

 NEWWAY       2       2.712944387428       3.796689589143     103.313163152227       0.000000000000
                Transition Moment: X:   0.000000    Y:   0.000000   Z:   0.000000
                  1 ->  13             -0.999618
                  1 ->  12             -0.020655
                  1 ->  14              0.019537
                 13 ->   1             -0.005091

 NEWWAY       3       5.672866506110       6.756611707826     183.856728694089       0.000000000000
                Transition Moment: X:   0.000000    Y:   0.000000   Z:   0.000000
                  1 ->  14              0.999817
                  1 ->  13              0.019529


    Symmetry:     4


    <<< warning >>> 
    reducing dimension of [ k*l, [H, j*i ] ] from    64 to     2

    state          energy (Eh)       ex energy (Eh)       ex energy (eV)       f, osc. strength
 NEWWAY       1       3.307492221419       4.391237423134     119.491630191113       0.000000000000
                Transition Moment: X:   0.000000    Y:   0.000000   Z:   0.000000
                  1 ->  15             -1.000005


    Symmetry:     5


    <<< warning >>> 
    reducing dimension of [ k*l, [H, j*i ] ] from   136 to    14

    state          energy (Eh)       ex energy (Eh)       ex energy (eV)       f, osc. strength
 NEWWAY       1      -0.501699515737       0.582045685978      15.838266338512       0.385102275901
                Transition Moment: X:   0.000000    Y:   0.000000   Z:  -0.996220
                  1 ->  16             -0.996530
                  1 ->  17             -0.091949
                 17 ->   1             -0.030091
                 16 ->   1             -0.024726
                 18 ->   1             -0.009804
                  1 ->  19              0.009295
                  1 ->  18              0.007371
                 19 ->   1             -0.007351

 NEWWAY       2      -0.045899106133       1.037846095582      28.241224488398       0.244536827034
                Transition Moment: X:   0.000000    Y:   0.000000   Z:   0.594499
                  1 ->  17              0.996797
                  1 ->  16             -0.089609
                 17 ->   1              0.038880
                  1 ->  18              0.028882
                 16 ->   1              0.024899
                 18 ->   1              0.015626
                 19 ->   1              0.014689
                  1 ->  19              0.010395

 NEWWAY       3       0.774160737173       1.857905938888      50.556184507348       0.029720072396
                Transition Moment: X:   0.000000    Y:   0.000000   Z:  -0.154903
                  1 ->  18             -0.999556
                  1 ->  17              0.027043
                  1 ->  19             -0.020005
                 17 ->   1             -0.015549
                  1 ->  21             -0.011671
                  1 ->  16             -0.010920
                 18 ->   1             -0.010069
                 19 ->   1             -0.009184
                 16 ->   1             -0.008169

 NEWWAY       4       1.828684588244       2.912429789959      79.251233737905       0.010221404143
                Transition Moment: X:   0.000000    Y:   0.000000   Z:   0.072556
                  1 ->  19              0.999917
                  1 ->  18             -0.019733
                 19 ->   1              0.014802
                 17 ->   1              0.014534
                  1 ->  16              0.010689
                  1 ->  21             -0.009313
                 18 ->   1              0.008975
                  1 ->  22              0.008705
                  1 ->  17             -0.007817
                 16 ->   1              0.006075

 NEWWAY       5       3.307492221419       4.391237423134     119.491630191114       0.000000000000
                Transition Moment: X:   0.000000    Y:   0.000000   Z:   0.000000
                  1 ->  20              1.000005

 NEWWAY       6       4.163651862104       5.247397063820     142.788915514477       0.001437990386
                Transition Moment: X:   0.000000    Y:   0.000000   Z:   0.020275
                  1 ->  21              0.999890
                  1 ->  18             -0.011723
                  1 ->  19              0.009137

 NEWWAY       7       8.065037294424       9.148782496139     248.950997039776       0.000080369388
                Transition Moment: X:   0.000000    Y:   0.000000   Z:   0.003630
                  1 ->  22             -0.999974
                  1 ->  19              0.008604


    Symmetry:     6


    <<< warning >>> 
    reducing dimension of [ k*l, [H, j*i ] ] from    96 to     6

    state          energy (Eh)       ex energy (Eh)       ex energy (eV)       f, osc. strength
 NEWWAY       1      -0.083300752867       1.000444448848      27.223474066493       0.706121451485
                Transition Moment: X:   0.000000    Y:  -1.028937   Z:   0.000000
                  1 ->  23             -1.000984
                 23 ->   1             -0.042610
                 24 ->   1              0.013050

 NEWWAY       2       2.514092299968       3.597837501683      97.902123436541       0.008212626387
                Transition Moment: X:   0.000000    Y:  -0.058515   Z:   0.000000
                  1 ->  24              1.000100
                 24 ->   1              0.014354
                 23 ->   1             -0.012838
                  1 ->  25             -0.012664

 NEWWAY       3       3.332045007682       4.415790209397     120.159745388171       0.000267262351
                Transition Moment: X:   0.000000    Y:   0.009528   Z:   0.000000
                  1 ->  25              0.999927
                  1 ->  24              0.012647


    Symmetry:     7


    <<< warning >>> 
    reducing dimension of [ k*l, [H, j*i ] ] from    96 to     6

    state          energy (Eh)       ex energy (Eh)       ex energy (eV)       f, osc. strength
 NEWWAY       1      -0.083300752867       1.000444448848      27.223474066495       0.706121451486
                Transition Moment: X:  -1.028937    Y:   0.000000   Z:   0.000000
                  1 ->  26             -1.000984
                 26 ->   1             -0.042610
                 27 ->   1              0.013050

 NEWWAY       2       2.514092299968       3.597837501683      97.902123436544       0.008212626387
                Transition Moment: X:  -0.058515    Y:   0.000000   Z:   0.000000
                  1 ->  27              1.000100
                 27 ->   1              0.014354
                 26 ->   1             -0.012838
                  1 ->  28             -0.012664

 NEWWAY       3       3.332045007682       4.415790209397     120.159745388172       0.000267262351
                Transition Moment: X:   0.009528    Y:   0.000000   Z:   0.000000
                  1 ->  28              0.999927
                  1 ->  27              0.012647


    ==> ERPA correlation information: <==

        Tr(D2aa):                  0.000000000000
        Tr(D2bb):                  0.000000000000
        Tr(D2ab):                  0.000000000000

        * ERPA total energy:      -1.904319664395
        * AC total energy:        -1.121525234450


*** tstop() called on ed4 at Mon May  7 17:10:49 2018
Module time:
	user time   =      10.99 seconds =       0.18 minutes
	system time =       0.48 seconds =       0.01 minutes
	total time  =          2 seconds =       0.03 minutes
Total time:
	user time   =      13.40 seconds =       0.22 minutes
	system time =       0.62 seconds =       0.01 minutes
	total time  =          3 seconds =       0.05 minutes
Molecule: Setting geometry variable R to 1.500000

*** tstart() called on ed4
*** at Mon May  7 17:10:49 2018

   => Loading Basis Set <=

    Name: CC-PVTZ
    Role: ORBITAL
    Keyword: BASIS
    atoms 1-2 entry H          line    23 file /edfs/users/namvu/software/psi4/install/intel-release/share/psi4/basis/cc-pvtz.gbs 


         ---------------------------------------------------------
                                   SCF
            by Justin Turney, Rob Parrish, Andy Simmonett
                             and Daniel Smith
                             ROHF Reference
                        6 Threads,   2861 MiB Core
         ---------------------------------------------------------

  ==> Geometry <==

    Molecular point group: d2h
    Full point group: D_inf_h

    Geometry (in Bohr), charge = 0, multiplicity = 1:

       Center              X                  Y                   Z               Mass       
    ------------   -----------------  -----------------  -----------------  -----------------
           H          0.000000000000     0.000000000000    -0.750000000000     1.007825032070
           H          0.000000000000     0.000000000000     0.750000000000     1.007825032070

  Running in d2h symmetry.

  Rotational constants: A = ************  B =     53.09536  C =     53.09536 [cm^-1]
  Rotational constants: A = ************  B = 1591758.83991  C = 1591758.83991 [MHz]
  Nuclear repulsion =    0.666666666666667

  Charge       = 0
  Multiplicity = 1
  Electrons    = 2
  Nalpha       = 1
  Nbeta        = 1

  ==> Algorithm <==

  SCF Algorithm Type is DF.
  DIIS enabled.
  MOM disabled.
  Fractional occupation disabled.
  Guess Type is GWH.
  Energy threshold   = 1.00e-08
  Density threshold  = 1.00e-08
  Integral threshold = 0.00e+00

  ==> Primary Basis <==

  Basis Set: CC-PVTZ
    Blend: CC-PVTZ
    Number of shells: 12
    Number of basis function: 28
    Number of Cartesian functions: 30
    Spherical Harmonics?: true
    Max angular momentum: 2

   => Loading Basis Set <=

    Name: (CC-PVTZ AUX)
    Role: JKFIT
    Keyword: DF_BASIS_SCF
    atoms 1-2 entry H          line    51 file /edfs/users/namvu/software/psi4/install/intel-release/share/psi4/basis/cc-pvtz-jkfit.gbs 

  ==> Pre-Iterations <==

   -------------------------------------------------------
    Irrep   Nso     Nmo     Nalpha   Nbeta   Ndocc  Nsocc
   -------------------------------------------------------
     Ag         7       7       0       0       0       0
     B1g        1       1       0       0       0       0
     B2g        3       3       0       0       0       0
     B3g        3       3       0       0       0       0
     Au         1       1       0       0       0       0
     B1u        7       7       0       0       0       0
     B2u        3       3       0       0       0       0
     B3u        3       3       0       0       0       0
   -------------------------------------------------------
    Total      28      28       1       1       1       0
   -------------------------------------------------------

  ==> Integral Setup <==

  ==> DFJK: Density-Fitted J/K Matrices <==

    J tasked:                  Yes
    K tasked:                  Yes
    wK tasked:                  No
    OpenMP threads:              6
    Integrals threads:           6
    Memory (MB):              2145
    Algorithm:                Core
    Integral Cache:           SAVE
    Schwarz Cutoff:          1E-12
    Fitting Condition:       1E-12

   => Auxiliary Basis Set <=

  Basis Set: (CC-PVTZ AUX)
    Blend: CC-PVTZ-JKFIT
    Number of shells: 20
    Number of basis function: 60
    Number of Cartesian functions: 70
    Spherical Harmonics?: true
    Max angular momentum: 3

  Minimum eigenvalue in the overlap matrix is 2.1879376887E-03.
  Using Symmetric Orthogonalization.

  SCF Guess: Generalized Wolfsberg-Helmholtz.

  ==> Iterations <==

                           Total Energy        Delta E     RMS |[F,P]|

    Occupation by irrep:
             Ag   B1g   B2g   B3g    Au   B1u   B2u   B3u 
    DOCC [     1,    0,    0,    0,    0,    0,    0,    0 ]
    SOCC [     0,    0,    0,    0,    0,    0,    0,    0 ]

   @DF-ROHF iter   1:     6.46387139756790    6.46387e+00   3.53283e-01 
   @DF-ROHF iter   2:    -1.12836179542625   -7.59223e+00   5.35764e-03 DIIS
   @DF-ROHF iter   3:    -1.13065457232681   -2.29278e-03   9.71334e-04 DIIS
   @DF-ROHF iter   4:    -1.13075353307390   -9.89607e-05   8.92562e-05 DIIS
   @DF-ROHF iter   5:    -1.13075412315648   -5.90083e-07   1.64808e-06 DIIS
   @DF-ROHF iter   6:    -1.13075412349863   -3.42151e-10   1.74247e-07 DIIS
   @DF-ROHF iter   7:    -1.13075412350309   -4.45688e-12   5.42744e-09 DIIS

  ==> Post-Iterations <==

    Orbital Energies (a.u.)
    -----------------------

    Doubly Occupied:                                                      

       1Ag    -0.578678  

    Singly Occupied:                                                      

    

    Virtual:                                                              

       1B1u    0.159405     2Ag     0.309986     2B1u    0.622740  
       1B3u    0.687166     1B2u    0.687166     3Ag     1.081201  
       1B3g    1.110497     1B2g    1.110497     3B1u    1.513986  
       4B1u    2.354982     4Ag     2.433877     5Ag     3.172291  
       1B1g    3.172291     2B2u    3.379426     2B3u    3.379426  
       6Ag     3.650417     2B3g    3.933767     2B2g    3.933767  
       1Au     4.028952     5B1u    4.028952     3B2u    4.067410  
       3B3u    4.067410     6B1u    4.488136     3B3g    5.532704  
       3B2g    5.532704     7Ag     5.593876     7B1u    6.728265  

    Final Occupation by Irrep:
             Ag   B1g   B2g   B3g    Au   B1u   B2u   B3u 
    DOCC [     1,    0,    0,    0,    0,    0,    0,    0 ]
    SOCC [     0,    0,    0,    0,    0,    0,    0,    0 ]

  Energy converged.

  @DF-ROHF Final Energy:    -1.13075412350309

   => Energetics <=

    Nuclear Repulsion Energy =              0.6666666666666666
    One-Electron Energy =                  -2.4374862394347812
    Two-Electron Energy =                   0.6400654492650266
    Total Energy =                         -1.1307541235030880



Properties will be evaluated at   0.000000,   0.000000,   0.000000 Bohr

Properties computed using the SCF density matrix

  Nuclear Dipole Moment: (a.u.)
     X:     0.0000      Y:     0.0000      Z:     0.0000

  Electronic Dipole Moment: (a.u.)
     X:     0.0000      Y:     0.0000      Z:     0.0000

  Dipole Moment: (a.u.)
     X:     0.0000      Y:     0.0000      Z:     0.0000     Total:     0.0000

  Dipole Moment: (Debye)
     X:     0.0000      Y:     0.0000      Z:     0.0000     Total:     0.0000


*** tstop() called on ed4 at Mon May  7 17:10:50 2018
Module time:
	user time   =       2.23 seconds =       0.04 minutes
	system time =       0.08 seconds =       0.00 minutes
	total time  =          1 seconds =       0.02 minutes
Total time:
	user time   =      15.66 seconds =       0.26 minutes
	system time =       0.70 seconds =       0.01 minutes
	total time  =          4 seconds =       0.07 minutes

Reading options from the V2RDM_CASSCF block
Calling plugin v2rdm_casscf.so.



*** tstart() called on ed4
*** at Mon May  7 17:10:50 2018



        ****************************************************
        *                                                  *
        *    v2RDM-CASSCF (PRIVATE)                        *
        *                                                  *
        *    A variational 2-RDM-driven approach to the    *
        *    active space self-consistent field method     *
        *                                                  *
        ****************************************************


        The following papers should be cited when using v2RDM-CASSCF:

        J. Fosso-Tande, D. R. Nascimento, and A. E. DePrince III,
        Mol. Phys. 114, 423-430 (2015).

            URL: http://dx.doi.org/10.1080/00268976.2015.1078008

        J. Fosso-Tande, T.-S. Nguyen, G. Gidofalvi, and
        A. E. DePrince III, J. Chem. Theory Comput. accepted (2016).

            URL: http://dx.doi.org/10.1021/acs.jctc.6b00190



  ==> Convergence parameters <==

        r_convergence:                      1.000e-05
        e_convergence:                      1.000e-04
        cg_convergence:                     1.000e-06
        maxiter:                              1000000
        cg_maxiter:                             10000

  ==> Active space details <==

        Number of frozen core orbitals:             0
        Number of restricted occupied orbitals:     1
        Number of active occupied orbitals:         0
        Number of active virtual orbitals:          0
        Number of restricted virtual orbitals:     27
        Number of frozen virtual orbitals:          0

        Irrep:             Ag, B1g, B2g, B3g,  Au, B1u, B2u, B3u 
 
        frozen_docc     [   0,   0,   0,   0,   0,   0,   0,   0 ]
        restricted_docc [   1,   0,   0,   0,   0,   0,   0,   0 ]
        active          [   0,   0,   0,   0,   0,   0,   0,   0 ]
        restricted_uocc [   6,   1,   3,   3,   1,   7,   3,   3 ]
        frozen_uocc     [   0,   0,   0,   0,   0,   0,   0,   0 ]

  ==> Orbital optimization parameters <==

        1-step algorithm:                    true
        g_convergence:                  1.000e-06
        e_convergence:                  1.000e-08
        maximum iterations:                    20
        frequency:                            500
        active-active rotations:            false
        exact diagonal Hessian:             false
        number of DIIS vectors:                 0
        print iteration info:               false

  ==> Memory requirements <==

        D2:                          0.00 mb
        Q2:                          0.00 mb
        G2:                          0.00 mb

        Total number of variables:              0
        Total number of constraints:            4
        Total memory requirements:        0.19 mb

    ==> Transform three-electron integrals <==


        Time for integral transformation:     0.05 s

    Molecular point group: d2h
    Full point group: D_inf_h

    Geometry (in Bohr), charge = 0, multiplicity = 1:

       Center              X                  Y                   Z               Mass       
    ------------   -----------------  -----------------  -----------------  -----------------
           H          0.000000000000     0.000000000000    -0.750000000000     1.007825032070
           H          0.000000000000     0.000000000000     0.750000000000     1.007825032070

  -AO BASIS SET INFORMATION:
    Name                   = CC-PVTZ
    Blend                  = CC-PVTZ
    Total number of shells = 12
    Number of primitives   = 16
    Number of AO           = 30
    Number of SO           = 28
    Maximum AM             = 2
    Spherical Harmonics    = TRUE

  -Contraction Scheme:
    Atom   Type   All Primitives // Shells:
   ------ ------ --------------------------
       1     H     5s 2p 1d // 3s 2p 1d 
       2     H     5s 2p 1d // 3s 2p 1d 

  ==> AO Basis Functions <==

    [ CC-PVTZ ]
    spherical
    ****
    H   1
    S   3 1.00
                        33.87000000           0.00606800
                         5.09500000           0.04530800
                         1.15900000           0.20282200
    S   1 1.00
                         0.32580000           1.00000000
    S   1 1.00
                         0.10270000           1.00000000
    P   1 1.00
                         1.40700000           1.00000000
    P   1 1.00
                         0.38800000           1.00000000
    D   1 1.00
                         1.05700000           1.00000000
    ****


    reference energy:          -1.130754123503
    frozen core energy:        -1.797420790170
    initial 2-RDM energy:      -1.130754123503

      oiter iiter        E(p)        E(d)      E gap)      mu     eps(p)     eps(d)

      v2RDM iterations converged!

      v2RDM total spin [S(S+1)]:             0.000000
    * v2RDM total energy:             -1.130754123503


 # Natural Orbital Occupation Numbers (alpha) #
 Irrep: 1
      1:  1.0000000
      2:  0.0000000
      3:  0.0000000
      4:  0.0000000
      5:  0.0000000
      6:  0.0000000
      7:  0.0000000

 Irrep: 2
      1:  0.0000000

 Irrep: 3
      1:  0.0000000
      2:  0.0000000
      3:  0.0000000

 Irrep: 4
      1:  0.0000000
      2:  0.0000000
      3:  0.0000000

 Irrep: 5
      1:  0.0000000

 Irrep: 6
      1:  0.0000000
      2:  0.0000000
      3:  0.0000000
      4:  0.0000000
      5:  0.0000000
      6:  0.0000000
      7:  0.0000000

 Irrep: 7
      1:  0.0000000
      2:  0.0000000
      3:  0.0000000

 Irrep: 8
      1:  0.0000000
      2:  0.0000000
      3:  0.0000000


 # Natural Orbital Occupation Numbers (beta) #
 Irrep: 1
      1:  1.0000000
      2:  0.0000000
      3:  0.0000000
      4:  0.0000000
      5:  0.0000000
      6:  0.0000000
      7:  0.0000000

 Irrep: 2
      1:  0.0000000

 Irrep: 3
      1:  0.0000000
      2:  0.0000000
      3:  0.0000000

 Irrep: 4
      1:  0.0000000
      2:  0.0000000
      3:  0.0000000

 Irrep: 5
      1:  0.0000000

 Irrep: 6
      1:  0.0000000
      2:  0.0000000
      3:  0.0000000
      4:  0.0000000
      5:  0.0000000
      6:  0.0000000
      7:  0.0000000

 Irrep: 7
      1:  0.0000000
      2:  0.0000000
      3:  0.0000000

 Irrep: 8
      1:  0.0000000
      2:  0.0000000
      3:  0.0000000


  ==> Iteration count <==

      Microiterations:                       0
      Macroiterations:                       0
      Orbital optimization steps:            0

  ==> Wall time <==

      Microiterations:                    0.00 s
      Macroiterations:                    0.00 s
      Orbital optimization:               0.00 s
      Total:                              0.01 s


*** tstop() called on ed4 at Mon May  7 17:10:50 2018
Module time:
	user time   =       0.33 seconds =       0.01 minutes
	system time =       0.03 seconds =       0.00 minutes
	total time  =          0 seconds =       0.00 minutes
Total time:
	user time   =      16.00 seconds =       0.27 minutes
	system time =       0.73 seconds =       0.01 minutes
	total time  =          4 seconds =       0.07 minutes

Reading options from the ERPA block
Calling plugin erpa.so.



*** tstart() called on ed4
*** at Mon May  7 17:10:50 2018



        *******************************************************
        *                                                     *
        *    ERPA                                             *
        *                                                     *
        *    Extended random phase approximation              *
        *                                                     *
        *    Eugene DePrince                                  *
        *                                                     *
        *******************************************************

  ==> Active space details <==

        Number of frozen core orbitals:             0
        Number of restricted occupied orbitals:     0
        Number of active occupied orbitals:         1
        Number of active virtual orbitals:         27
        Number of restricted virtual orbitals:      0
        Number of frozen virtual orbitals:          0

        Irrep:             Ag, B1g, B2g, B3g,  Au, B1u, B2u, B3u 
 
        frozen_docc     [   0,   0,   0,   0,   0,   0,   0,   0 ]
        restricted_docc [   0,   0,   0,   0,   0,   0,   0,   0 ]
        active          [   7,   1,   3,   3,   1,   7,   3,   3 ]
        restricted_uocc [   0,   0,   0,   0,   0,   0,   0,   0 ]
        frozen_uocc     [   0,   0,   0,   0,   0,   0,   0,   0 ]

  ==> Eigenvalue threshold below which A matrix is pruned: 1.00e-06
  ==> Number of expansion coeffients to be printed if all are above threshold:    20
  ==> Threshold above which excitation coefficients are printed: 5.00e-03


        Total memory requirements:       19.43 mb
        (note this estimate might be wrong when using four-index integrals ...)

    ==> Transform three-electron integrals <==


        Time for integral transformation:     0.30 s

    Molecular point group: d2h
    Full point group: D_inf_h

    Geometry (in Bohr), charge = 0, multiplicity = 1:

       Center              X                  Y                   Z               Mass       
    ------------   -----------------  -----------------  -----------------  -----------------
           H          0.000000000000     0.000000000000    -0.750000000000     1.007825032070
           H          0.000000000000     0.000000000000     0.750000000000     1.007825032070

  -AO BASIS SET INFORMATION:
    Name                   = CC-PVTZ
    Blend                  = CC-PVTZ
    Total number of shells = 12
    Number of primitives   = 16
    Number of AO           = 30
    Number of SO           = 28
    Maximum AM             = 2
    Spherical Harmonics    = TRUE

  -Contraction Scheme:
    Atom   Type   All Primitives // Shells:
   ------ ------ --------------------------
       1     H     5s 2p 1d // 3s 2p 1d 
       2     H     5s 2p 1d // 3s 2p 1d 

  ==> AO Basis Functions <==

    [ CC-PVTZ ]
    spherical
    ****
    H   1
    S   3 1.00
                        33.87000000           0.00606800
                         5.09500000           0.04530800
                         1.15900000           0.20282200
    S   1 1.00
                         0.32580000           1.00000000
    S   1 1.00
                         0.10270000           1.00000000
    P   1 1.00
                         1.40700000           1.00000000
    P   1 1.00
                         0.38800000           1.00000000
    D   1 1.00
                         1.05700000           1.00000000
    ****

    Molecular point group: d2h
    Full point group: D_inf_h

    Geometry (in Bohr), charge = 0, multiplicity = 1:

       Center              X                  Y                   Z               Mass       
    ------------   -----------------  -----------------  -----------------  -----------------
           H          0.000000000000     0.000000000000    -0.750000000000     1.007825032070
           H          0.000000000000     0.000000000000     0.750000000000     1.007825032070

  -AO BASIS SET INFORMATION:
    Name                   = CC-PVTZ
    Blend                  = CC-PVTZ
    Total number of shells = 12
    Number of primitives   = 16
    Number of AO           = 30
    Number of SO           = 28
    Maximum AM             = 2
    Spherical Harmonics    = TRUE

  -Contraction Scheme:
    Atom   Type   All Primitives // Shells:
   ------ ------ --------------------------
       1     H     5s 2p 1d // 3s 2p 1d 
       2     H     5s 2p 1d // 3s 2p 1d 

  ==> AO Basis Functions <==

    [ CC-PVTZ ]
    spherical
    ****
    H   1
    S   3 1.00
                        33.87000000           0.00606800
                         5.09500000           0.04530800
                         1.15900000           0.20282200
    S   1 1.00
                         0.32580000           1.00000000
    S   1 1.00
                         0.10270000           1.00000000
    P   1 1.00
                         1.40700000           1.00000000
    P   1 1.00
                         0.38800000           1.00000000
    D   1 1.00
                         1.05700000           1.00000000
    ****


    ==> ERPA expansion: aa/bb <==

    Molecular point group: d2h
    Full point group: D_inf_h

    Geometry (in Bohr), charge = 0, multiplicity = 1:

       Center              X                  Y                   Z               Mass       
    ------------   -----------------  -----------------  -----------------  -----------------
           H          0.000000000000     0.000000000000    -0.750000000000     1.007825032070
           H          0.000000000000     0.000000000000     0.750000000000     1.007825032070

  -AO BASIS SET INFORMATION:
    Name                   = CC-PVTZ
    Blend                  = CC-PVTZ
    Total number of shells = 12
    Number of primitives   = 16
    Number of AO           = 30
    Number of SO           = 28
    Maximum AM             = 2
    Spherical Harmonics    = TRUE

  -Contraction Scheme:
    Atom   Type   All Primitives // Shells:
   ------ ------ --------------------------
       1     H     5s 2p 1d // 3s 2p 1d 
       2     H     5s 2p 1d // 3s 2p 1d 

  ==> AO Basis Functions <==

    [ CC-PVTZ ]
    spherical
    ****
    H   1
    S   3 1.00
                        33.87000000           0.00606800
                         5.09500000           0.04530800
                         1.15900000           0.20282200
    S   1 1.00
                         0.32580000           1.00000000
    S   1 1.00
                         0.10270000           1.00000000
    P   1 1.00
                         1.40700000           1.00000000
    P   1 1.00
                         0.38800000           1.00000000
    D   1 1.00
                         1.05700000           1.00000000
    ****


    Symmetry:     0


    <<< warning >>> 
    reducing dimension of [ k*l, [H, j*i ] ] from   108 to    12

    state          energy (Eh)       ex energy (Eh)       ex energy (eV)       f, osc. strength
 NEWWAY       1      -0.496844046130       0.633910077373      17.249568001216       0.000000000000
                Transition Moment: X:   0.000000    Y:   0.000000   Z:   0.000000
                  1 ->   2              1.001191
                  2 ->   1              0.044446
                  4 ->   1              0.015732
                  3 ->   1              0.013816
                  1 ->   4              0.005964

 NEWWAY       2       0.148402946741       1.279157070244      34.807629118095       0.000000000000
                Transition Moment: X:   0.000000    Y:   0.000000   Z:   0.000000
                  1 ->   3              1.000017
                  1 ->   4             -0.018674
                  3 ->   1              0.018129
                  1 ->   6             -0.013926
                  2 ->   1              0.013618
                  6 ->   1             -0.007067

 NEWWAY       3       1.406492417250       2.537246540753      69.041979774109       0.000000000000
                Transition Moment: X:   0.000000    Y:   0.000000   Z:   0.000000
                  1 ->   4             -1.000094
                  1 ->   3             -0.019032
                  4 ->   1             -0.017669
                  2 ->   1             -0.015671

 NEWWAY       4       2.085766707634       3.216520831137      87.525970613985       0.000000000000
                Transition Moment: X:   0.000000    Y:   0.000000   Z:   0.000000
                  1 ->   5             -1.000026
                  5 ->   1             -0.007248

 NEWWAY       5       2.577203114736       3.707957238239     100.898633433483       0.000000000000
                Transition Moment: X:   0.000000    Y:   0.000000   Z:   0.000000
                  1 ->   6             -0.999691
                  1 ->   7             -0.023694
                  1 ->   3             -0.013731
                  6 ->   1             -0.008450
                  3 ->   1              0.006805

 NEWWAY       6       4.466013745368       5.596767868871     152.295777251640       0.000000000000
                Transition Moment: X:   0.000000    Y:   0.000000   Z:   0.000000
                  1 ->   7              0.999725
                  1 ->   6             -0.023674


    Symmetry:     1


    <<< warning >>> 
    reducing dimension of [ k*l, [H, j*i ] ] from    64 to     2

    state          energy (Eh)       ex energy (Eh)       ex energy (eV)       f, osc. strength
 NEWWAY       1       2.085766707634       3.216520831137      87.525970613986       0.000000000000
                Transition Moment: X:   0.000000    Y:   0.000000   Z:   0.000000
                  1 ->   8             -1.000026
                  8 ->   1             -0.007248


    Symmetry:     2


    <<< warning >>> 
    reducing dimension of [ k*l, [H, j*i ] ] from    96 to     6

    state          energy (Eh)       ex energy (Eh)       ex energy (eV)       f, osc. strength
 NEWWAY       1       0.161474406991       1.292228530494      35.163321590119       0.000000000000
                Transition Moment: X:   0.000000    Y:   0.000000   Z:   0.000000
                  1 ->   9              0.999993
                  1 ->  10             -0.013030
                  9 ->   1              0.012065

 NEWWAY       2       2.862794747471       3.993548870974     108.669975876640       0.000000000000
                Transition Moment: X:   0.000000    Y:   0.000000   Z:   0.000000
                  1 ->  10             -0.999605
                  1 ->  11             -0.025780
                  1 ->   9             -0.013033
                 10 ->   1             -0.005062

 NEWWAY       3       4.402101020195       5.532855143698     150.556623800127       0.000000000000
                Transition Moment: X:   0.000000    Y:   0.000000   Z:   0.000000
                  1 ->  11              0.999671
                  1 ->  10             -0.025796


    Symmetry:     3


    <<< warning >>> 
    reducing dimension of [ k*l, [H, j*i ] ] from    96 to     6

    state          energy (Eh)       ex energy (Eh)       ex energy (eV)       f, osc. strength
 NEWWAY       1       0.161474406991       1.292228530494      35.163321590118       0.000000000000
                Transition Moment: X:   0.000000    Y:   0.000000   Z:   0.000000
                  1 ->  12              0.999993
                  1 ->  13             -0.013030
                 12 ->   1              0.012065

 NEWWAY       2       2.862794747471       3.993548870974     108.669975876640       0.000000000000
                Transition Moment: X:   0.000000    Y:   0.000000   Z:   0.000000
                  1 ->  13              0.999605
                  1 ->  14              0.025780
                  1 ->  12              0.013033
                 13 ->   1              0.005062

 NEWWAY       3       4.402101020195       5.532855143698     150.556623800127       0.000000000000
                Transition Moment: X:   0.000000    Y:   0.000000   Z:   0.000000
                  1 ->  14              0.999671
                  1 ->  13             -0.025796


    Symmetry:     4


    <<< warning >>> 
    reducing dimension of [ k*l, [H, j*i ] ] from    64 to     2

    state          energy (Eh)       ex energy (Eh)       ex energy (eV)       f, osc. strength
 NEWWAY       1       2.936302123552       4.067056247055     110.670213019977       0.000000000000
                Transition Moment: X:   0.000000    Y:   0.000000   Z:   0.000000
                  1 ->  15             -1.000006


    Symmetry:     5


    <<< warning >>> 
    reducing dimension of [ k*l, [H, j*i ] ] from   136 to    14

    state          energy (Eh)       ex energy (Eh)       ex energy (eV)       f, osc. strength
 NEWWAY       1      -0.653292286532       0.477461836971      12.992395481307       0.515413813698
                Transition Moment: X:   0.000000    Y:   0.000000   Z:  -1.272490
                  1 ->  16             -1.001069
                  1 ->  17             -0.052047
                 16 ->   1             -0.051461
                 17 ->   1             -0.047441
                  1 ->  19              0.012650
                 19 ->   1             -0.010439

 NEWWAY       2      -0.231453524166       0.899300599337      24.471210342793       0.148702087623
                Transition Moment: X:   0.000000    Y:   0.000000   Z:   0.498026
                  1 ->  17              1.001218
                 17 ->   1              0.053306
                  1 ->  16             -0.046914
                 16 ->   1              0.042698
                 19 ->   1              0.018882
                  1 ->  19              0.017669
                  1 ->  18              0.008808

 NEWWAY       3       0.581389908533       1.712144032036      46.589801870456       0.002174580823
                Transition Moment: X:   0.000000    Y:   0.000000   Z:  -0.043648
                  1 ->  18              0.999831
                  1 ->  21             -0.015706
                  1 ->  17             -0.008706
                  1 ->  19              0.006587

 NEWWAY       4       1.348833293887       2.479587417390      67.472995457814       0.001009386551
                Transition Moment: X:   0.000000    Y:   0.000000   Z:   0.024711
                  1 ->  19              1.000040
                 17 ->   1              0.018854
                 19 ->   1              0.016270
                  1 ->  17             -0.015125
                  1 ->  16              0.014990
                  1 ->  22              0.012435
                 16 ->   1              0.009702
                  1 ->  18             -0.006635

 NEWWAY       5       2.936302123552       4.067056247055     110.670213019977       0.000000000000
                Transition Moment: X:   0.000000    Y:   0.000000   Z:  -0.000000
                  1 ->  20              1.000006

 NEWWAY       6       3.406914385691       4.537668509194     123.476222117725       0.002358400516
                Transition Moment: X:   0.000000    Y:   0.000000   Z:   0.027921
                  1 ->  21              0.999854
                  1 ->  18              0.015695
                  1 ->  22             -0.007592

 NEWWAY       7       5.552792864951       6.683546988454     181.868536850681       0.003364197699
                Transition Moment: X:   0.000000    Y:   0.000000   Z:  -0.027478
                  1 ->  22              0.999908
                  1 ->  19             -0.012274
                  1 ->  21              0.007594


    Symmetry:     6


    <<< warning >>> 
    reducing dimension of [ k*l, [H, j*i ] ] from    96 to     6

    state          energy (Eh)       ex energy (Eh)       ex energy (eV)       f, osc. strength
 NEWWAY       1      -0.220235377470       0.910518746033      24.776471595439       0.754948269162
                Transition Moment: X:   0.000000    Y:   1.115218   Z:   0.000000
                  1 ->  23              1.001141
                 23 ->   1              0.046750
                 24 ->   1             -0.010863
                  1 ->  24             -0.005138

 NEWWAY       2       2.283227112394       3.413981235897      92.899140722853       0.000101483863
                Transition Moment: X:   0.000000    Y:  -0.006677   Z:   0.000000
                  1 ->  24             -1.000075
                 24 ->   1             -0.011251
                 23 ->   1              0.010562
                  1 ->  25              0.008241

 NEWWAY       3       2.974104947613       4.104859071117     111.698880030600       0.001178327772
                Transition Moment: X:   0.000000    Y:   0.020751   Z:   0.000000
                  1 ->  25              0.999979
                  1 ->  24              0.008285


    Symmetry:     7


    <<< warning >>> 
    reducing dimension of [ k*l, [H, j*i ] ] from    96 to     6

    state          energy (Eh)       ex energy (Eh)       ex energy (eV)       f, osc. strength
 NEWWAY       1      -0.220235377470       0.910518746033      24.776471595438       0.754948269162
                Transition Moment: X:  -1.115218    Y:   0.000000   Z:   0.000000
                  1 ->  26             -1.001141
                 26 ->   1             -0.046750
                 27 ->   1              0.010863
                  1 ->  27              0.005138

 NEWWAY       2       2.283227112394       3.413981235897      92.899140722853       0.000101483863
                Transition Moment: X:   0.006677    Y:   0.000000   Z:   0.000000
                  1 ->  27              1.000075
                 27 ->   1              0.011251
                 26 ->   1             -0.010562
                  1 ->  28             -0.008241

 NEWWAY       3       2.974104947613       4.104859071117     111.698880030600       0.001178327772
                Transition Moment: X:  -0.020751    Y:   0.000000   Z:   0.000000
                  1 ->  28             -0.999979
                  1 ->  27             -0.008285


    ==> ERPA correlation information: <==

        Tr(D2aa):                  0.000000000000
        Tr(D2bb):                  0.000000000000
        Tr(D2ab):                  0.000000000000

        * ERPA total energy:      -1.849368706619
        * AC total energy:        -1.170028692894


*** tstop() called on ed4 at Mon May  7 17:10:52 2018
Module time:
	user time   =      10.75 seconds =       0.18 minutes
	system time =       0.45 seconds =       0.01 minutes
	total time  =          2 seconds =       0.03 minutes
Total time:
	user time   =      26.77 seconds =       0.45 minutes
	system time =       1.18 seconds =       0.02 minutes
	total time  =          6 seconds =       0.10 minutes
Molecule: Setting geometry variable R to 2.000000

*** tstart() called on ed4
*** at Mon May  7 17:10:52 2018

   => Loading Basis Set <=

    Name: CC-PVTZ
    Role: ORBITAL
    Keyword: BASIS
    atoms 1-2 entry H          line    23 file /edfs/users/namvu/software/psi4/install/intel-release/share/psi4/basis/cc-pvtz.gbs 


         ---------------------------------------------------------
                                   SCF
            by Justin Turney, Rob Parrish, Andy Simmonett
                             and Daniel Smith
                             ROHF Reference
                        6 Threads,   2861 MiB Core
         ---------------------------------------------------------

  ==> Geometry <==

    Molecular point group: d2h
    Full point group: D_inf_h

    Geometry (in Bohr), charge = 0, multiplicity = 1:

       Center              X                  Y                   Z               Mass       
    ------------   -----------------  -----------------  -----------------  -----------------
           H          0.000000000000     0.000000000000    -1.000000000000     1.007825032070
           H          0.000000000000     0.000000000000     1.000000000000     1.007825032070

  Running in d2h symmetry.

  Rotational constants: A = ************  B =     29.86614  C =     29.86614 [cm^-1]
  Rotational constants: A = ************  B = 895364.34745  C = 895364.34745 [MHz]
  Nuclear repulsion =    0.500000000000000

  Charge       = 0
  Multiplicity = 1
  Electrons    = 2
  Nalpha       = 1
  Nbeta        = 1

  ==> Algorithm <==

  SCF Algorithm Type is DF.
  DIIS enabled.
  MOM disabled.
  Fractional occupation disabled.
  Guess Type is GWH.
  Energy threshold   = 1.00e-08
  Density threshold  = 1.00e-08
  Integral threshold = 0.00e+00

  ==> Primary Basis <==

  Basis Set: CC-PVTZ
    Blend: CC-PVTZ
    Number of shells: 12
    Number of basis function: 28
    Number of Cartesian functions: 30
    Spherical Harmonics?: true
    Max angular momentum: 2

   => Loading Basis Set <=

    Name: (CC-PVTZ AUX)
    Role: JKFIT
    Keyword: DF_BASIS_SCF
    atoms 1-2 entry H          line    51 file /edfs/users/namvu/software/psi4/install/intel-release/share/psi4/basis/cc-pvtz-jkfit.gbs 

  ==> Pre-Iterations <==

   -------------------------------------------------------
    Irrep   Nso     Nmo     Nalpha   Nbeta   Ndocc  Nsocc
   -------------------------------------------------------
     Ag         7       7       0       0       0       0
     B1g        1       1       0       0       0       0
     B2g        3       3       0       0       0       0
     B3g        3       3       0       0       0       0
     Au         1       1       0       0       0       0
     B1u        7       7       0       0       0       0
     B2u        3       3       0       0       0       0
     B3u        3       3       0       0       0       0
   -------------------------------------------------------
    Total      28      28       1       1       1       0
   -------------------------------------------------------

  ==> Integral Setup <==

  ==> DFJK: Density-Fitted J/K Matrices <==

    J tasked:                  Yes
    K tasked:                  Yes
    wK tasked:                  No
    OpenMP threads:              6
    Integrals threads:           6
    Memory (MB):              2145
    Algorithm:                Core
    Integral Cache:           SAVE
    Schwarz Cutoff:          1E-12
    Fitting Condition:       1E-12

   => Auxiliary Basis Set <=

  Basis Set: (CC-PVTZ AUX)
    Blend: CC-PVTZ-JKFIT
    Number of shells: 20
    Number of basis function: 60
    Number of Cartesian functions: 70
    Spherical Harmonics?: true
    Max angular momentum: 3

  Minimum eigenvalue in the overlap matrix is 9.5278855591E-03.
  Using Symmetric Orthogonalization.

  SCF Guess: Generalized Wolfsberg-Helmholtz.

  ==> Iterations <==

                           Total Energy        Delta E     RMS |[F,P]|

    Occupation by irrep:
             Ag   B1g   B2g   B3g    Au   B1u   B2u   B3u 
    DOCC [     1,    0,    0,    0,    0,    0,    0,    0 ]
    SOCC [     0,    0,    0,    0,    0,    0,    0,    0 ]

   @DF-ROHF iter   1:     5.32421532487112    5.32422e+00   2.95566e-01 
   @DF-ROHF iter   2:    -1.08878403120531   -6.41300e+00   4.20220e-03 DIIS
   @DF-ROHF iter   3:    -1.09098376957683   -2.19974e-03   7.67695e-04 DIIS
   @DF-ROHF iter   4:    -1.09108386597305   -1.00096e-04   6.80280e-05 DIIS
   @DF-ROHF iter   5:    -1.09108440225532   -5.36282e-07   2.16934e-06 DIIS
   @DF-ROHF iter   6:    -1.09108440276674   -5.11418e-10   1.55942e-07 DIIS
   @DF-ROHF iter   7:    -1.09108440276909   -2.35190e-12   3.94828e-09 DIIS

  ==> Post-Iterations <==

    Orbital Energies (a.u.)
    -----------------------

    Doubly Occupied:                                                      

       1Ag    -0.513681  

    Singly Occupied:                                                      

    

    Virtual:                                                              

       1B1u    0.113783     2Ag     0.333288     2B1u    0.528446  
       1B2u    0.668974     1B3u    0.668974     3Ag     0.984473  
       1B3g    1.047969     1B2g    1.047969     3B1u    1.463597  
       4Ag     2.541126     4B1u    2.651508     2B3u    3.186279  
       2B2u    3.186279     5Ag     3.228206     1B1g    3.228206  
       6Ag     3.386771     5B1u    3.771488     1Au     3.771488  
       3B2u    3.923617     3B3u    3.923617     2B3g    4.002644  
       2B2g    4.002644     6B1u    4.064746     3B3g    4.765624  
       3B2g    4.765624     7Ag     4.853320     7B1u    6.110670  

    Final Occupation by Irrep:
             Ag   B1g   B2g   B3g    Au   B1u   B2u   B3u 
    DOCC [     1,    0,    0,    0,    0,    0,    0,    0 ]
    SOCC [     0,    0,    0,    0,    0,    0,    0,    0 ]

  Energy converged.

  @DF-ROHF Final Energy:    -1.09108440276909

   => Energetics <=

    Nuclear Repulsion Energy =              0.5000000000000000
    One-Electron Energy =                  -2.1548073679723263
    Two-Electron Energy =                   0.5637229652032367
    Total Energy =                         -1.0910844027690896



Properties will be evaluated at   0.000000,   0.000000,   0.000000 Bohr

Properties computed using the SCF density matrix

  Nuclear Dipole Moment: (a.u.)
     X:     0.0000      Y:     0.0000      Z:     0.0000

  Electronic Dipole Moment: (a.u.)
     X:     0.0000      Y:     0.0000      Z:     0.0000

  Dipole Moment: (a.u.)
     X:     0.0000      Y:     0.0000      Z:     0.0000     Total:     0.0000

  Dipole Moment: (Debye)
     X:     0.0000      Y:     0.0000      Z:     0.0000     Total:     0.0000


*** tstop() called on ed4 at Mon May  7 17:10:52 2018
Module time:
	user time   =       2.21 seconds =       0.04 minutes
	system time =       0.12 seconds =       0.00 minutes
	total time  =          0 seconds =       0.00 minutes
Total time:
	user time   =      29.02 seconds =       0.48 minutes
	system time =       1.30 seconds =       0.02 minutes
	total time  =          6 seconds =       0.10 minutes

Reading options from the V2RDM_CASSCF block
Calling plugin v2rdm_casscf.so.



*** tstart() called on ed4
*** at Mon May  7 17:10:52 2018



        ****************************************************
        *                                                  *
        *    v2RDM-CASSCF (PRIVATE)                        *
        *                                                  *
        *    A variational 2-RDM-driven approach to the    *
        *    active space self-consistent field method     *
        *                                                  *
        ****************************************************


        The following papers should be cited when using v2RDM-CASSCF:

        J. Fosso-Tande, D. R. Nascimento, and A. E. DePrince III,
        Mol. Phys. 114, 423-430 (2015).

            URL: http://dx.doi.org/10.1080/00268976.2015.1078008

        J. Fosso-Tande, T.-S. Nguyen, G. Gidofalvi, and
        A. E. DePrince III, J. Chem. Theory Comput. accepted (2016).

            URL: http://dx.doi.org/10.1021/acs.jctc.6b00190



  ==> Convergence parameters <==

        r_convergence:                      1.000e-05
        e_convergence:                      1.000e-04
        cg_convergence:                     1.000e-06
        maxiter:                              1000000
        cg_maxiter:                             10000

  ==> Active space details <==

        Number of frozen core orbitals:             0
        Number of restricted occupied orbitals:     1
        Number of active occupied orbitals:         0
        Number of active virtual orbitals:          0
        Number of restricted virtual orbitals:     27
        Number of frozen virtual orbitals:          0

        Irrep:             Ag, B1g, B2g, B3g,  Au, B1u, B2u, B3u 
 
        frozen_docc     [   0,   0,   0,   0,   0,   0,   0,   0 ]
        restricted_docc [   1,   0,   0,   0,   0,   0,   0,   0 ]
        active          [   0,   0,   0,   0,   0,   0,   0,   0 ]
        restricted_uocc [   6,   1,   3,   3,   1,   7,   3,   3 ]
        frozen_uocc     [   0,   0,   0,   0,   0,   0,   0,   0 ]

  ==> Orbital optimization parameters <==

        1-step algorithm:                    true
        g_convergence:                  1.000e-06
        e_convergence:                  1.000e-08
        maximum iterations:                    20
        frequency:                            500
        active-active rotations:            false
        exact diagonal Hessian:             false
        number of DIIS vectors:                 0
        print iteration info:               false

  ==> Memory requirements <==

        D2:                          0.00 mb
        Q2:                          0.00 mb
        G2:                          0.00 mb

        Total number of variables:              0
        Total number of constraints:            4
        Total memory requirements:        0.19 mb

    ==> Transform three-electron integrals <==


        Time for integral transformation:     0.05 s

    Molecular point group: d2h
    Full point group: D_inf_h

[...]
       2     H     5s 2p 1d // 3s 2p 1d 

  ==> AO Basis Functions <==

    [ CC-PVTZ ]
    spherical
    ****
    H   1
    S   3 1.00
                        33.87000000           0.00606800
                         5.09500000           0.04530800
                         1.15900000           0.20282200
    S   1 1.00
                         0.32580000           1.00000000
    S   1 1.00
                         0.10270000           1.00000000
    P   1 1.00
                         1.40700000           1.00000000
    P   1 1.00
                         0.38800000           1.00000000
    D   1 1.00
                         1.05700000           1.00000000
    ****


    reference energy:          -0.771458676489
    frozen core energy:        -0.882569787600
    initial 2-RDM energy:      -0.771458676489

      oiter iiter        E(p)        E(d)      E gap)      mu     eps(p)     eps(d)

      v2RDM iterations converged!

      v2RDM total spin [S(S+1)]:             0.000000
    * v2RDM total energy:             -0.771458676489


 # Natural Orbital Occupation Numbers (alpha) #
 Irrep: 1
      1:  1.0000000
      2:  0.0000000
      3:  0.0000000
      4:  0.0000000
      5:  0.0000000
      6:  0.0000000
      7:  0.0000000

 Irrep: 2
      1:  0.0000000

 Irrep: 3
      1:  0.0000000
      2:  0.0000000
      3:  0.0000000

 Irrep: 4
      1:  0.0000000
      2:  0.0000000
      3:  0.0000000

 Irrep: 5
      1:  0.0000000

 Irrep: 6
      1:  0.0000000
      2:  0.0000000
      3:  0.0000000
      4:  0.0000000
      5:  0.0000000
      6:  0.0000000
      7:  0.0000000

 Irrep: 7
      1:  0.0000000
      2:  0.0000000
      3:  0.0000000

 Irrep: 8
      1:  0.0000000
      2:  0.0000000
      3:  0.0000000


 # Natural Orbital Occupation Numbers (beta) #
 Irrep: 1
      1:  1.0000000
      2:  0.0000000
      3:  0.0000000
      4:  0.0000000
      5:  0.0000000
      6:  0.0000000
      7:  0.0000000

 Irrep: 2
      1:  0.0000000

 Irrep: 3
      1:  0.0000000
      2:  0.0000000
      3:  0.0000000

 Irrep: 4
      1:  0.0000000
      2:  0.0000000
      3:  0.0000000

 Irrep: 5
      1:  0.0000000

 Irrep: 6
      1:  0.0000000
      2:  0.0000000
      3:  0.0000000
      4:  0.0000000
      5:  0.0000000
      6:  0.0000000
      7:  0.0000000

 Irrep: 7
      1:  0.0000000
      2:  0.0000000
      3:  0.0000000

 Irrep: 8
      1:  0.0000000
      2:  0.0000000
      3:  0.0000000


  ==> Iteration count <==

      Microiterations:                       0
      Macroiterations:                       0
      Orbital optimization steps:            0

  ==> Wall time <==

      Microiterations:                    0.00 s
      Macroiterations:                    0.00 s
      Orbital optimization:               0.00 s
      Total:                              0.02 s


*** tstop() called on ed4 at Mon May  7 17:11:32 2018
Module time:
	user time   =       0.36 seconds =       0.01 minutes
	system time =       0.04 seconds =       0.00 minutes
	total time  =          0 seconds =       0.00 minutes
Total time:
	user time   =     217.58 seconds =       3.63 minutes
	system time =      10.67 seconds =       0.18 minutes
	total time  =         46 seconds =       0.77 minutes

Reading options from the ERPA block
Calling plugin erpa.so.



*** tstart() called on ed4
*** at Mon May  7 17:11:32 2018



        *******************************************************
        *                                                     *
        *    ERPA                                             *
        *                                                     *
        *    Extended random phase approximation              *
        *                                                     *
        *    Eugene DePrince                                  *
        *                                                     *
        *******************************************************

  ==> Active space details <==

        Number of frozen core orbitals:             0
        Number of restricted occupied orbitals:     0
        Number of active occupied orbitals:         1
        Number of active virtual orbitals:         27
        Number of restricted virtual orbitals:      0
        Number of frozen virtual orbitals:          0

        Irrep:             Ag, B1g, B2g, B3g,  Au, B1u, B2u, B3u 
 
        frozen_docc     [   0,   0,   0,   0,   0,   0,   0,   0 ]
        restricted_docc [   0,   0,   0,   0,   0,   0,   0,   0 ]
        active          [   7,   1,   3,   3,   1,   7,   3,   3 ]
        restricted_uocc [   0,   0,   0,   0,   0,   0,   0,   0 ]
        frozen_uocc     [   0,   0,   0,   0,   0,   0,   0,   0 ]

  ==> Eigenvalue threshold below which A matrix is pruned: 1.00e-06
  ==> Number of expansion coeffients to be printed if all are above threshold:    20
  ==> Threshold above which excitation coefficients are printed: 5.00e-03


        Total memory requirements:       19.43 mb
        (note this estimate might be wrong when using four-index integrals ...)

    ==> Transform three-electron integrals <==


        Time for integral transformation:     0.32 s

    Molecular point group: d2h
    Full point group: D_inf_h

    Geometry (in Bohr), charge = 0, multiplicity = 1:

       Center              X                  Y                   Z               Mass       
    ------------   -----------------  -----------------  -----------------  -----------------
           H          0.000000000000     0.000000000000    -4.500000000000     1.007825032070
           H          0.000000000000     0.000000000000     4.500000000000     1.007825032070

  -AO BASIS SET INFORMATION:
    Name                   = CC-PVTZ
    Blend                  = CC-PVTZ
    Total number of shells = 12
    Number of primitives   = 16
    Number of AO           = 30
    Number of SO           = 28
    Maximum AM             = 2
    Spherical Harmonics    = TRUE

  -Contraction Scheme:
    Atom   Type   All Primitives // Shells:
   ------ ------ --------------------------
       1     H     5s 2p 1d // 3s 2p 1d 
       2     H     5s 2p 1d // 3s 2p 1d 

  ==> AO Basis Functions <==

    [ CC-PVTZ ]
    spherical
    ****
    H   1
    S   3 1.00
                        33.87000000           0.00606800
                         5.09500000           0.04530800
                         1.15900000           0.20282200
    S   1 1.00
                         0.32580000           1.00000000
    S   1 1.00
                         0.10270000           1.00000000
    P   1 1.00
                         1.40700000           1.00000000
    P   1 1.00
                         0.38800000           1.00000000
    D   1 1.00
                         1.05700000           1.00000000
    ****

    Molecular point group: d2h
    Full point group: D_inf_h

    Geometry (in Bohr), charge = 0, multiplicity = 1:

       Center              X                  Y                   Z               Mass       
    ------------   -----------------  -----------------  -----------------  -----------------
           H          0.000000000000     0.000000000000    -4.500000000000     1.007825032070
           H          0.000000000000     0.000000000000     4.500000000000     1.007825032070

  -AO BASIS SET INFORMATION:
    Name                   = CC-PVTZ
    Blend                  = CC-PVTZ
    Total number of shells = 12
    Number of primitives   = 16
    Number of AO           = 30
    Number of SO           = 28
    Maximum AM             = 2
    Spherical Harmonics    = TRUE

  -Contraction Scheme:
    Atom   Type   All Primitives // Shells:
   ------ ------ --------------------------
       1     H     5s 2p 1d // 3s 2p 1d 
       2     H     5s 2p 1d // 3s 2p 1d 

  ==> AO Basis Functions <==

    [ CC-PVTZ ]
    spherical
    ****
    H   1
    S   3 1.00
                        33.87000000           0.00606800
                         5.09500000           0.04530800
                         1.15900000           0.20282200
    S   1 1.00
                         0.32580000           1.00000000
    S   1 1.00
                         0.10270000           1.00000000
    P   1 1.00
                         1.40700000           1.00000000
    P   1 1.00
                         0.38800000           1.00000000
    D   1 1.00
                         1.05700000           1.00000000
    ****


    ==> ERPA expansion: aa/bb <==

    Molecular point group: d2h
    Full point group: D_inf_h

    Geometry (in Bohr), charge = 0, multiplicity = 1:

       Center              X                  Y                   Z               Mass       
    ------------   -----------------  -----------------  -----------------  -----------------
           H          0.000000000000     0.000000000000    -4.500000000000     1.007825032070
           H          0.000000000000     0.000000000000     4.500000000000     1.007825032070

  -AO BASIS SET INFORMATION:
    Name                   = CC-PVTZ
    Blend                  = CC-PVTZ
    Total number of shells = 12
    Number of primitives   = 16
    Number of AO           = 30
    Number of SO           = 28
    Maximum AM             = 2
    Spherical Harmonics    = TRUE

  -Contraction Scheme:
    Atom   Type   All Primitives // Shells:
   ------ ------ --------------------------
       1     H     5s 2p 1d // 3s 2p 1d 
       2     H     5s 2p 1d // 3s 2p 1d 

  ==> AO Basis Functions <==

    [ CC-PVTZ ]
    spherical
    ****
    H   1
    S   3 1.00
                        33.87000000           0.00606800
                         5.09500000           0.04530800
                         1.15900000           0.20282200
    S   1 1.00
                         0.32580000           1.00000000
    S   1 1.00
                         0.10270000           1.00000000
    P   1 1.00
                         1.40700000           1.00000000
    P   1 1.00
                         0.38800000           1.00000000
    D   1 1.00
                         1.05700000           1.00000000
    ****


    Symmetry:     0


    <<< warning >>> 
    reducing dimension of [ k*l, [H, j*i ] ] from   108 to    12

    state          energy (Eh)       ex energy (Eh)       ex energy (eV)       f, osc. strength
 NEWWAY       1      -0.285265760583       0.486192915906      13.229980188017       0.000000000000
                Transition Moment: X:   0.000000    Y:   0.000000   Z:   0.000000
                  1 ->   2             -1.001344
                  2 ->   1             -0.050925
                  4 ->   1             -0.010447

 NEWWAY       2       0.052721717794       0.824180394283      22.427085897385       0.000000000000
                Transition Moment: X:   0.000000    Y:   0.000000   Z:   0.000000
                  1 ->   3             -1.000432
                  3 ->   1             -0.029547

 NEWWAY       3       1.688330826806       2.459789503294      66.934266894156       0.000000000000
                Transition Moment: X:   0.000000    Y:   0.000000   Z:   0.000000
                  1 ->   4             -1.000099
                  2 ->   1             -0.010489
                  4 ->   1             -0.009724

 NEWWAY       4       2.604253512846       3.375712189334      91.857787154605       0.000000000000
                Transition Moment: X:   0.000000    Y:   0.000000   Z:   0.000000
                  1 ->   6              1.000001

 NEWWAY       5       2.604765685302       3.376224361790      91.871724073933       0.000000000000
                Transition Moment: X:   0.000000    Y:   0.000000   Z:   0.000000
                  1 ->   5              1.000006

 NEWWAY       6       3.014198743017       3.785657419505     103.012962591978       0.000000000000
                Transition Moment: X:   0.000000    Y:   0.000000   Z:   0.000000
                  1 ->   7              1.000008


    Symmetry:     1


    <<< warning >>> 
    reducing dimension of [ k*l, [H, j*i ] ] from    64 to     2

    state          energy (Eh)       ex energy (Eh)       ex energy (eV)       f, osc. strength
 NEWWAY       1       2.604765685302       3.376224361790      91.871724073933       0.000000000000
                Transition Moment: X:   0.000000    Y:   0.000000   Z:   0.000000
                  1 ->   8              1.000006


    Symmetry:     2


    <<< warning >>> 
    reducing dimension of [ k*l, [H, j*i ] ] from    96 to     6

    state          energy (Eh)       ex energy (Eh)       ex energy (eV)       f, osc. strength
 NEWWAY       1       0.052122379032       0.823581055521      22.410777062574       0.000000000000
                Transition Moment: X:   0.000000    Y:   0.000000   Z:   0.000000
                  1 ->   9              1.000408
                  9 ->   1              0.028456

 NEWWAY       2       2.604360177161       3.375818853649      91.860689637808       0.000000000000
                Transition Moment: X:   0.000000    Y:   0.000000   Z:   0.000000
                  1 ->  10             -1.000003

 NEWWAY       3       3.014682839296       3.786141515785     103.026135519793       0.000000000000
                Transition Moment: X:   0.000000    Y:   0.000000   Z:   0.000000
                  1 ->  11              1.000011


    Symmetry:     3


    <<< warning >>> 
    reducing dimension of [ k*l, [H, j*i ] ] from    96 to     6

    state          energy (Eh)       ex energy (Eh)       ex energy (eV)       f, osc. strength
 NEWWAY       1       0.052122379032       0.823581055521      22.410777062574       0.000000000000
                Transition Moment: X:   0.000000    Y:   0.000000   Z:   0.000000
                  1 ->  12             -1.000408
                 12 ->   1             -0.028456

 NEWWAY       2       2.604360177161       3.375818853649      91.860689637808       0.000000000000
                Transition Moment: X:   0.000000    Y:   0.000000   Z:   0.000000
                  1 ->  13              1.000003

 NEWWAY       3       3.014682839296       3.786141515785     103.026135519793       0.000000000000
                Transition Moment: X:   0.000000    Y:   0.000000   Z:   0.000000
                  1 ->  14             -1.000011


    Symmetry:     4


    <<< warning >>> 
    reducing dimension of [ k*l, [H, j*i ] ] from    64 to     2

    state          energy (Eh)       ex energy (Eh)       ex energy (eV)       f, osc. strength
 NEWWAY       1       2.604759188627       3.376217865116      91.871547290459       0.000000000000
                Transition Moment: X:   0.000000    Y:   0.000000   Z:   0.000000
                  1 ->  15              1.000006


    Symmetry:     5


    <<< warning >>> 
    reducing dimension of [ k*l, [H, j*i ] ] from   136 to    14

    state          energy (Eh)       ex energy (Eh)       ex energy (eV)       f, osc. strength
 NEWWAY       1      -0.735083935296       0.036374741193       0.989806905002       0.093327036423
                Transition Moment: X:   0.000000    Y:   0.000000   Z:   1.961776
                  1 ->  16              1.777399
                 16 ->   1              1.469270
                 17 ->   1              0.042621
                  1 ->  17             -0.033654
                  1 ->  18             -0.022783
                 18 ->   1             -0.015189

 NEWWAY       2      -0.255295577775       0.516163098713      14.045510221060       0.007415404608
                Transition Moment: X:   0.000000    Y:   0.000000   Z:  -0.146798
                  1 ->  17              1.001473
                 16 ->   1              0.131151
                  1 ->  16              0.128563
                 17 ->   1              0.046703
                 19 ->   1              0.010092

 NEWWAY       3       0.050424485898       0.821883162386      22.364575047297       0.817273447670
                Transition Moment: X:   0.000000    Y:   0.000000   Z:   1.221305
                  1 ->  18              1.000250
                 18 ->   1              0.028127
                  1 ->  16              0.017819
                 16 ->   1              0.006437

 NEWWAY       4       1.718716495599       2.490175172087      67.761102874227       0.002892605826
                Transition Moment: X:   0.000000    Y:   0.000000   Z:   0.041742
                  1 ->  19              1.000091
                  1 ->  16              0.011467
                 16 ->   1              0.011290
                 17 ->   1              0.010132
                 19 ->   1              0.009486

 NEWWAY       5       2.604213766901       3.375672443389      91.856705612596       0.000006130133
                Transition Moment: X:   0.000000    Y:   0.000000   Z:  -0.001650
                  1 ->  21              1.000002

 NEWWAY       6       2.604759188627       3.376217865116      91.871547290459       0.000000000000
                Transition Moment: X:   0.000000    Y:   0.000000   Z:  -0.000000
                  1 ->  20             -1.000006

 NEWWAY       7       3.014187614356       3.785646290845     103.012659765770       0.067110469016
                Transition Moment: X:   0.000000    Y:   0.000000   Z:  -0.163069
                  1 ->  22              1.000009


    Symmetry:     6


    <<< warning >>> 
    reducing dimension of [ k*l, [H, j*i ] ] from    96 to     6

    state          energy (Eh)       ex energy (Eh)       ex energy (eV)       f, osc. strength
 NEWWAY       1       0.053201275970       0.824659952458      22.440135337124       0.860995162955
                Transition Moment: X:   0.000000    Y:  -1.251436   Z:   0.000000
                  1 ->  23             -1.000427
                 23 ->   1             -0.029112

 NEWWAY       2       2.604387216240       3.375845892728      91.861425408462       0.000039937846
                Transition Moment: X:   0.000000    Y:   0.004213   Z:   0.000000
                  1 ->  24              1.000003

 NEWWAY       3       3.014701782996       3.786160459484     103.026651004003       0.075942123102
                Transition Moment: X:   0.000000    Y:   0.173455   Z:   0.000000
                  1 ->  25              1.000011


    Symmetry:     7


    <<< warning >>> 
    reducing dimension of [ k*l, [H, j*i ] ] from    96 to     6

    state          energy (Eh)       ex energy (Eh)       ex energy (eV)       f, osc. strength
 NEWWAY       1       0.053201275970       0.824659952458      22.440135337124       0.860995162955
                Transition Moment: X:  -1.251436    Y:   0.000000   Z:   0.000000
                  1 ->  26             -1.000427
                 26 ->   1             -0.029112

 NEWWAY       2       2.604387216240       3.375845892728      91.861425408462       0.000039937846
                Transition Moment: X:  -0.004213    Y:   0.000000   Z:   0.000000
                  1 ->  27             -1.000003

 NEWWAY       3       3.014701782996       3.786160459484     103.026651004003       0.075942123102
                Transition Moment: X:   0.173455    Y:   0.000000   Z:   0.000000
                  1 ->  28              1.000011


    ==> ERPA correlation information: <==

        Tr(D2aa):                  0.000000000000
        Tr(D2bb):                  0.000000000000
        Tr(D2ab):                  0.000000000000

        * ERPA total energy:      -1.314587047670
        * AC total energy:        -0.884365176859


*** tstop() called on ed4 at Mon May  7 17:11:34 2018
Module time:
	user time   =      10.92 seconds =       0.18 minutes
	system time =       0.62 seconds =       0.01 minutes
	total time  =          2 seconds =       0.03 minutes
Total time:
	user time   =     228.53 seconds =       3.81 minutes
	system time =      11.29 seconds =       0.19 minutes
	total time  =         48 seconds =       0.80 minutes

*** Psi4 exiting successfully. Buy a developer a beer!
