
    -----------------------------------------------------------------------
          Psi4: An Open-Source Ab Initio Electronic Structure Package
                               Psi4 1.2a1.dev936 

                         Git: Rev {master} d7752aa dirty


    R. M. Parrish, L. A. Burns, D. G. A. Smith, A. C. Simmonett,
    A. E. DePrince III, E. G. Hohenstein, U. Bozkaya, A. Yu. Sokolov,
    R. Di Remigio, R. M. Richard, J. F. Gonthier, A. M. James,
    H. R. McAlexander, A. Kumar, M. Saitow, X. Wang, B. P. Pritchard,
    P. Verma, H. F. Schaefer III, K. Patkowski, R. A. King, E. F. Valeev,
    F. A. Evangelista, J. M. Turney, T. D. Crawford, and C. D. Sherrill,
    J. Chem. Theory Comput. 13(7) pp 3185--3197 (2017).
    (doi: 10.1021/acs.jctc.7b00174)

    -----------------------------------------------------------------------


    Psi4 started on: Monday, 07 May 2018 03:01PM

    Process ID:   7337
    PSIDATADIR: /edfs/users/namvu/software/psi4/install/intel-release/share/psi4
    Memory:     500.0 MiB
    Threads:    6
    
  ==> Input File <==

--------------------------------------------------------------------------
# PYTHONPATH must include directory above plugin directory.
#     Define either externally or here, then import plugin.
sys.path.insert(0, "/edfs/users/namvu/v2rdm_casscf_public")
import v2rdm_casscf
sys.path.insert(0, './..')
import tderpa 

memory 3000 mb
molecule mol {
0 1
H
H 1  R 
unit bohr

}
Rvals=[1.0, 1.5, 2.0, 2.5, 3.0, 3.5, 4.0, 4.5, 5.0, 5.5, 6.0, 6.5, 7.0, 7.5, 8.0, 8.5, 9.0]

set {
  basis cc-pvtz
  scf_type df
  d_convergence 1e-8
  reference rohf
  maxiter 200
}

for R in Rvals:
  mol.R = R
  en,wfn = energy('fci',return_wfn=True)

--------------------------------------------------------------------------

  Memory set to   2.794 GiB by Python driver.
Molecule: geometry: Molecule is not complete, please use 'update_geometry'
                    once all variables are set.
Molecule: Setting geometry variable R to 1.000000

*** tstart() called on ed4
*** at Mon May  7 15:01:25 2018

   => Loading Basis Set <=

    Name: CC-PVTZ
    Role: ORBITAL
    Keyword: BASIS
    atoms 1-2 entry H          line    23 file /edfs/users/namvu/software/psi4/install/intel-release/share/psi4/basis/cc-pvtz.gbs 


         ---------------------------------------------------------
                                   SCF
            by Justin Turney, Rob Parrish, Andy Simmonett
                             and Daniel Smith
                             ROHF Reference
                        6 Threads,   2861 MiB Core
         ---------------------------------------------------------

  ==> Geometry <==

    Molecular point group: d2h
    Full point group: D_inf_h

    Geometry (in Bohr), charge = 0, multiplicity = 1:

       Center              X                  Y                   Z               Mass       
    ------------   -----------------  -----------------  -----------------  -----------------
           H          0.000000000000     0.000000000000    -0.500000000000     1.007825032070
           H          0.000000000000     0.000000000000     0.500000000000     1.007825032070

  Running in d2h symmetry.

  Rotational constants: A = ************  B =    119.46456  C =    119.46456 [cm^-1]
  Rotational constants: A = ************  B = 3581457.38979  C = 3581457.38979 [MHz]
  Nuclear repulsion =    1.000000000000000

  Charge       = 0
  Multiplicity = 1
  Electrons    = 2
  Nalpha       = 1
  Nbeta        = 1

  ==> Algorithm <==

  SCF Algorithm Type is DF.
  DIIS enabled.
  MOM disabled.
  Fractional occupation disabled.
  Guess Type is GWH.
  Energy threshold   = 1.00e-08
  Density threshold  = 1.00e-08
  Integral threshold = 0.00e+00

  ==> Primary Basis <==

  Basis Set: CC-PVTZ
    Blend: CC-PVTZ
    Number of shells: 12
    Number of basis function: 28
    Number of Cartesian functions: 30
    Spherical Harmonics?: true
    Max angular momentum: 2

   => Loading Basis Set <=

    Name: (CC-PVTZ AUX)
    Role: JKFIT
    Keyword: DF_BASIS_SCF
    atoms 1-2 entry H          line    51 file /edfs/users/namvu/software/psi4/install/intel-release/share/psi4/basis/cc-pvtz-jkfit.gbs 

  ==> Pre-Iterations <==

   -------------------------------------------------------
    Irrep   Nso     Nmo     Nalpha   Nbeta   Ndocc  Nsocc
   -------------------------------------------------------
     Ag         7       7       0       0       0       0
     B1g        1       1       0       0       0       0
     B2g        3       3       0       0       0       0
     B3g        3       3       0       0       0       0
     Au         1       1       0       0       0       0
     B1u        7       7       0       0       0       0
     B2u        3       3       0       0       0       0
     B3u        3       3       0       0       0       0
   -------------------------------------------------------
    Total      28      28       1       1       1       0
   -------------------------------------------------------

  ==> Integral Setup <==

  ==> DFJK: Density-Fitted J/K Matrices <==

    J tasked:                  Yes
    K tasked:                  Yes
    wK tasked:                  No
    OpenMP threads:              6
    Integrals threads:           6
    Memory (MB):              2145
    Algorithm:                Core
    Integral Cache:           NONE
    Schwarz Cutoff:          1E-12
    Fitting Condition:       1E-12

   => Auxiliary Basis Set <=

  Basis Set: (CC-PVTZ AUX)
    Blend: CC-PVTZ-JKFIT
    Number of shells: 20
    Number of basis function: 60
    Number of Cartesian functions: 70
    Spherical Harmonics?: true
    Max angular momentum: 3

  Minimum eigenvalue in the overlap matrix is 3.9722018017E-04.
  Using Symmetric Orthogonalization.

  SCF Guess: Generalized Wolfsberg-Helmholtz.

  ==> Iterations <==

                           Total Energy        Delta E     RMS |[F,P]|

    Occupation by irrep:
             Ag   B1g   B2g   B3g    Au   B1u   B2u   B3u 
    DOCC [     1,    0,    0,    0,    0,    0,    0,    0 ]
    SOCC [     0,    0,    0,    0,    0,    0,    0,    0 ]

   @DF-ROHF iter   1:     9.57465730581961    9.57466e+00   2.20527e-01 
   @DF-ROHF iter   2:    -1.07693774010544   -1.06516e+01   1.07400e-02 DIIS
   @DF-ROHF iter   3:    -1.08356682284115   -6.62908e-03   1.62087e-03 DIIS
   @DF-ROHF iter   4:    -1.08374361366553   -1.76791e-04   1.13538e-04 DIIS
   @DF-ROHF iter   5:    -1.08374519870532   -1.58504e-06   5.31292e-06 DIIS
   @DF-ROHF iter   6:    -1.08374520169783   -2.99251e-09   4.51455e-07 DIIS
   @DF-ROHF iter   7:    -1.08374520171490   -1.70730e-11   3.58340e-08 DIIS
   @DF-ROHF iter   8:    -1.08374520171504   -1.38556e-13   1.19962e-09 DIIS

  ==> Post-Iterations <==

    Orbital Energies (a.u.)
    -----------------------

    Doubly Occupied:                                                      

       1Ag    -0.669365  

    Singly Occupied:                                                      

    

    Virtual:                                                              

       1B1u    0.190097     2Ag     0.284919     2B1u    0.701954  
       1B3u    0.720045     1B2u    0.720045     3Ag     1.137952  
       1B3g    1.138065     1B2g    1.138065     3B1u    1.583482  
       4Ag     2.258538     4B1u    2.753501     1B1g    3.241560  
       5Ag     3.241560     2B2u    3.508861     2B3u    3.508861  
       2B3g    3.664959     2B2g    3.664959     6Ag     3.728670  
       1Au     4.306976     5B1u    4.306976     3B2u    4.335448  
       3B3u    4.335448     6B1u    5.171674     7Ag     6.686477  
       3B3g    6.739386     3B2g    6.739386     7B1u    9.224174  

    Final Occupation by Irrep:
             Ag   B1g   B2g   B3g    Au   B1u   B2u   B3u 
    DOCC [     1,    0,    0,    0,    0,    0,    0,    0 ]
    SOCC [     0,    0,    0,    0,    0,    0,    0,    0 ]

  Energy converged.

  @DF-ROHF Final Energy:    -1.08374520171504

   => Energetics <=

    Nuclear Repulsion Energy =              1.0000000000000000
    One-Electron Energy =                  -2.8287595954226479
    Two-Electron Energy =                   0.7450143937076080
    Total Energy =                         -1.0837452017150397



Properties will be evaluated at   0.000000,   0.000000,   0.000000 Bohr

Properties computed using the SCF density matrix

  Nuclear Dipole Moment: (a.u.)
     X:     0.0000      Y:     0.0000      Z:     0.0000

  Electronic Dipole Moment: (a.u.)
     X:     0.0000      Y:     0.0000      Z:     0.0000

  Dipole Moment: (a.u.)
     X:     0.0000      Y:     0.0000      Z:     0.0000     Total:     0.0000

  Dipole Moment: (Debye)
     X:     0.0000      Y:     0.0000      Z:     0.0000     Total:     0.0000


*** tstop() called on ed4 at Mon May  7 15:01:26 2018
Module time:
	user time   =       1.90 seconds =       0.03 minutes
	system time =       0.05 seconds =       0.00 minutes
	total time  =          1 seconds =       0.02 minutes
Total time:
	user time   =       1.90 seconds =       0.03 minutes
	system time =       0.05 seconds =       0.00 minutes
	total time  =          1 seconds =       0.02 minutes
 MINTS: Wrapper to libmints.
   by Justin Turney

   Calculation information:
      Number of threads:                 6
      Number of atoms:                   2
      Number of AO shells:              12
      Number of SO shells:               6
      Number of primitives:             16
      Number of atomic orbitals:        30
      Number of basis functions:        28

      Number of irreps:                  8
      Integral cutoff                 0.00e+00
      Number of functions per irrep: [   7    1    3    3    1    7    3    3 ]

 OEINTS: Overlap, kinetic, potential, dipole, and quadrupole integrals
         stored in file 35.

      Computing two-electron integrals...done
      Computed 10693 non-zero two-electron integrals.
        Stored in file 33.


         ---------------------------------------------------------
                          Configuration Interaction
                            (a 'D E T C I' module)

                 C. David Sherrill, Daniel G. A. Smith, and
                              Matt L. Leininger
         ---------------------------------------------------------

Warning: iopen=0,opentype!=closed. Making iopen=1

   ==> Parameters <==

    EX LEVEL       =        2      H0 BLOCKSIZE  =     1000
    VAL EX LEVEL   =        0      H0 GUESS SIZE =     1000
    H0COUPLINGSIZE =        0      H0 COUPLING   =       NO
    MAXITER        =       24      NUM PRINT     =       20
    NUM ROOTS      =        1      ICORE         =        1
    PRINT LVL      =        1      FCI           =      YES
    R CONV         = 1.00e-04      MIXED         =      YES
    E CONV         = 1.00e-06      MIXED4        =      YES
    R4S            =       NO      REPL OTF      =       NO
    DIAG METHOD    =      SEM      FOLLOW ROOT   =        0
    PRECONDITIONER = DAVIDSON      UPDATE        = DAVIDSON
    S              =   0.0000      Ms0           =      YES
    GUESS VECTOR   =  H0BLOCK      OPENTYPE      =  SINGLET
    COLLAPSE SIZE  =        1      HD AVG        = EVANGELISTI
    MAX NUM VECS   =       25      REF SYM       =     AUTO
    IOPEN        =      YES

    EX ALLOW       =  1  1 
    STATE AVERAGE  =  0(1.00) 

   ==> CI Orbital and Space information <==

   ------------------------------------------------------------------------------
               Space    Total    Ag   B1g   B2g   B3g    Au   B1u   B2u   B3u
   ------------------------------------------------------------------------------
                 Nso       28     7     1     3     3     1     7     3     3
                 Nmo       28     7     1     3     3     1     7     3     3
               Ndocc        1     1     0     0     0     0     0     0     0
               Nsocc        0     0     0     0     0     0     0     0     0
   ------------------------------------------------------------------------------
                                   CI Spaces
   ------------------------------------------------------------------------------
        Dropped DOCC        0     0     0     0     0     0     0     0     0
              Active       28     7     1     3     3     1     7     3     3
        Dropped UOCC        0     0     0     0     0     0     0     0     0
   ------------------------------------------------------------------------------

   ==> Setting up CI strings <==

    There are 28 alpha and 28 beta strings
    The CI space requires 136 (1.36E+02) determinants and 8 blocks

   ==> Transforming CI integrals <==

	Presorting SO-basis two-electron integrals.
	Sorting File: SO Ints (nn|nn) nbuckets = 1
	Transforming the one-electron integrals and constructing Fock matrices
	Starting first half-transformation.
	Sorting half-transformed integrals.
	First half integral transformation complete.
	Starting second half-transformation.
	Two-electron integral transformation complete.

   ==> Starting CI iterations <==

    H0 Block Eigenvalue =  -1.08594469

    Simultaneous Expansion Method (Block Davidson Method)
    Using 1 initial trial vectors

     Iter   Root       Total Energy       Delta E      C RMS

   @CI  0:     0     -1.085944690857   -2.0859E+00   3.9249E-01  
   @CI  1:     0     -1.120592925989   -3.4648E-02   6.7850E-02  
   @CI  2:     0     -1.121427344052   -8.3442E-04   7.2308E-03  
   @CI  3:     0     -1.121439699430   -1.2355E-05   1.2411E-03  
   @CI  4:     0     -1.121440046345   -3.4691E-07   1.4826E-04  
   @CI  5:     0     -1.121440051496   -5.1509E-09   1.8871E-05 c

   ==> Energetics <==

    SCF energy =           -1.083745201715040
    Total CI energy =      -1.121440051495759

   ==> FCI root 0 information <==

    FCI Root 0 energy =    -1.121440051495759

   The 20 most important determinants:

    *   1    0.993516  (    0,    0)  1AgX 
    *   2   -0.040456  (   16,   16)  2B1uX 
    *   3   -0.038484  (   25,   25)  1B3uX 
    *   4   -0.038484  (   22,   22)  1B2uX 
    *   5   -0.034711  (    1,    1)  2AgX 
    *   6   -0.025996  (   15,   16)  1B1uA 2B1uB 
    *   7   -0.025996  (   16,   15)  1B1uB 2B1uA 
    *   8   -0.021484  (    3,    3)  4AgX 
    *   9   -0.020207  (    1,    3)  2AgA 4AgB 
    *  10   -0.020207  (    3,    1)  2AgB 4AgA 
    *  11   -0.018522  (   15,   15)  1B1uX 
    *  12   -0.016805  (   16,   17)  2B1uA 3B1uB 
    *  13   -0.016805  (   17,   16)  2B1uB 3B1uA 
    *  14   -0.016370  (   16,   18)  2B1uA 4B1uB 
    *  15   -0.016370  (   18,   16)  2B1uB 4B1uA 
    *  16    0.014781  (    1,    2)  2AgA 3AgB 
    *  17    0.014781  (    2,    1)  2AgB 3AgA 
    *  18    0.013789  (   22,   23)  1B2uA 2B2uB 
    *  19    0.013789  (   23,   22)  1B2uB 2B2uA 
    *  20    0.013789  (   25,   26)  1B3uA 2B3uB 

		 "A good bug is a dead bug" 

			 - Starship Troopers

		 "I didn't write FORTRAN.  That's the problem."

			 - Edward Valeev
Molecule: Setting geometry variable R to 1.500000

*** tstart() called on ed4
*** at Mon May  7 15:01:26 2018

   => Loading Basis Set <=

    Name: CC-PVTZ
    Role: ORBITAL
    Keyword: BASIS
    atoms 1-2 entry H          line    23 file /edfs/users/namvu/software/psi4/install/intel-release/share/psi4/basis/cc-pvtz.gbs 


         ---------------------------------------------------------
                                   SCF
            by Justin Turney, Rob Parrish, Andy Simmonett
                             and Daniel Smith
                             ROHF Reference
                        6 Threads,   2861 MiB Core
         ---------------------------------------------------------

  ==> Geometry <==

    Molecular point group: d2h
    Full point group: D_inf_h

    Geometry (in Bohr), charge = 0, multiplicity = 1:

       Center              X                  Y                   Z               Mass       
    ------------   -----------------  -----------------  -----------------  -----------------
           H          0.000000000000     0.000000000000    -0.750000000000     1.007825032070
           H          0.000000000000     0.000000000000     0.750000000000     1.007825032070

  Running in d2h symmetry.

  Rotational constants: A = ************  B =     53.09536  C =     53.09536 [cm^-1]
  Rotational constants: A = ************  B = 1591758.83991  C = 1591758.83991 [MHz]
  Nuclear repulsion =    0.666666666666667

  Charge       = 0
  Multiplicity = 1
  Electrons    = 2
  Nalpha       = 1
  Nbeta        = 1

  ==> Algorithm <==

  SCF Algorithm Type is DF.
  DIIS enabled.
  MOM disabled.
  Fractional occupation disabled.
  Guess Type is GWH.
  Energy threshold   = 1.00e-08
  Density threshold  = 1.00e-08
  Integral threshold = 0.00e+00

  ==> Primary Basis <==

  Basis Set: CC-PVTZ
    Blend: CC-PVTZ
    Number of shells: 12
    Number of basis function: 28
    Number of Cartesian functions: 30
    Spherical Harmonics?: true
    Max angular momentum: 2

   => Loading Basis Set <=

    Name: (CC-PVTZ AUX)
    Role: JKFIT
    Keyword: DF_BASIS_SCF
    atoms 1-2 entry H          line    51 file /edfs/users/namvu/software/psi4/install/intel-release/share/psi4/basis/cc-pvtz-jkfit.gbs 

  ==> Pre-Iterations <==

   -------------------------------------------------------
    Irrep   Nso     Nmo     Nalpha   Nbeta   Ndocc  Nsocc
   -------------------------------------------------------
     Ag         7       7       0       0       0       0
     B1g        1       1       0       0       0       0
     B2g        3       3       0       0       0       0
     B3g        3       3       0       0       0       0
     Au         1       1       0       0       0       0
     B1u        7       7       0       0       0       0
     B2u        3       3       0       0       0       0
     B3u        3       3       0       0       0       0
   -------------------------------------------------------
    Total      28      28       1       1       1       0
   -------------------------------------------------------

  ==> Integral Setup <==

  ==> DFJK: Density-Fitted J/K Matrices <==

    J tasked:                  Yes
    K tasked:                  Yes
    wK tasked:                  No
    OpenMP threads:              6
    Integrals threads:           6
    Memory (MB):              2145
    Algorithm:                Core
    Integral Cache:           NONE
    Schwarz Cutoff:          1E-12
    Fitting Condition:       1E-12

   => Auxiliary Basis Set <=

  Basis Set: (CC-PVTZ AUX)
    Blend: CC-PVTZ-JKFIT
    Number of shells: 20
    Number of basis function: 60
    Number of Cartesian functions: 70
    Spherical Harmonics?: true
    Max angular momentum: 3

  Minimum eigenvalue in the overlap matrix is 2.1879376887E-03.
  Using Symmetric Orthogonalization.

  SCF Guess: Generalized Wolfsberg-Helmholtz.

  ==> Iterations <==

                           Total Energy        Delta E     RMS |[F,P]|

    Occupation by irrep:
             Ag   B1g   B2g   B3g    Au   B1u   B2u   B3u 
    DOCC [     1,    0,    0,    0,    0,    0,    0,    0 ]
    SOCC [     0,    0,    0,    0,    0,    0,    0,    0 ]

   @DF-ROHF iter   1:     6.46387139756790    6.46387e+00   3.44337e-01 
   @DF-ROHF iter   2:    -1.12836179542625   -7.59223e+00   5.11212e-03 DIIS
   @DF-ROHF iter   3:    -1.13065457232681   -2.29278e-03   9.55791e-04 DIIS
   @DF-ROHF iter   4:    -1.13075353307390   -9.89607e-05   6.56224e-05 DIIS
   @DF-ROHF iter   5:    -1.13075412315648   -5.90083e-07   1.44644e-06 DIIS
   @DF-ROHF iter   6:    -1.13075412349863   -3.42151e-10   1.64137e-07 DIIS
   @DF-ROHF iter   7:    -1.13075412350309   -4.45688e-12   5.42744e-09 DIIS

  ==> Post-Iterations <==

    Orbital Energies (a.u.)
    -----------------------

    Doubly Occupied:                                                      

       1Ag    -0.578678  

    Singly Occupied:                                                      

    

    Virtual:                                                              

       1B1u    0.159405     2Ag     0.309986     2B1u    0.622740  
       1B3u    0.687166     1B2u    0.687166     3Ag     1.081201  
       1B3g    1.110497     1B2g    1.110497     3B1u    1.513986  
       4B1u    2.354982     4Ag     2.433877     5Ag     3.172291  
       1B1g    3.172291     2B2u    3.379426     2B3u    3.379426  
       6Ag     3.650417     2B3g    3.933767     2B2g    3.933767  
       1Au     4.028952     5B1u    4.028952     3B2u    4.067410  
       3B3u    4.067410     6B1u    4.488136     3B3g    5.532704  
       3B2g    5.532704     7Ag     5.593876     7B1u    6.728265  

    Final Occupation by Irrep:
             Ag   B1g   B2g   B3g    Au   B1u   B2u   B3u 
    DOCC [     1,    0,    0,    0,    0,    0,    0,    0 ]
    SOCC [     0,    0,    0,    0,    0,    0,    0,    0 ]

  Energy converged.

  @DF-ROHF Final Energy:    -1.13075412350309

   => Energetics <=

    Nuclear Repulsion Energy =              0.6666666666666666
    One-Electron Energy =                  -2.4374862394347812
    Two-Electron Energy =                   0.6400654492650266
    Total Energy =                         -1.1307541235030880



Properties will be evaluated at   0.000000,   0.000000,   0.000000 Bohr

Properties computed using the SCF density matrix

  Nuclear Dipole Moment: (a.u.)
     X:     0.0000      Y:     0.0000      Z:     0.0000

  Electronic Dipole Moment: (a.u.)
     X:     0.0000      Y:     0.0000      Z:     0.0000

  Dipole Moment: (a.u.)
     X:     0.0000      Y:     0.0000      Z:     0.0000     Total:     0.0000

  Dipole Moment: (Debye)
     X:     0.0000      Y:     0.0000      Z:     0.0000     Total:     0.0000


*** tstop() called on ed4 at Mon May  7 15:01:26 2018
Module time:
	user time   =       2.07 seconds =       0.03 minutes
	system time =       0.11 seconds =       0.00 minutes
	total time  =          0 seconds =       0.00 minutes
Total time:
	user time   =       5.31 seconds =       0.09 minutes
	system time =       0.28 seconds =       0.00 minutes
	total time  =          1 seconds =       0.02 minutes
 MINTS: Wrapper to libmints.
   by Justin Turney

   Calculation information:
      Number of threads:                 6
      Number of atoms:                   2
      Number of AO shells:              12
      Number of SO shells:               6
      Number of primitives:             16
      Number of atomic orbitals:        30
      Number of basis functions:        28

      Number of irreps:                  8
      Integral cutoff                 0.00e+00
      Number of functions per irrep: [   7    1    3    3    1    7    3    3 ]

 OEINTS: Overlap, kinetic, potential, dipole, and quadrupole integrals
         stored in file 35.

      Computing two-electron integrals...done
      Computed 10663 non-zero two-electron integrals.
        Stored in file 33.


         ---------------------------------------------------------
                          Configuration Interaction
                            (a 'D E T C I' module)

                 C. David Sherrill, Daniel G. A. Smith, and
                              Matt L. Leininger
         ---------------------------------------------------------

Warning: iopen=0,opentype!=closed. Making iopen=1

   ==> Parameters <==

    EX LEVEL       =        2      H0 BLOCKSIZE  =     1000
    VAL EX LEVEL   =        0      H0 GUESS SIZE =     1000
    H0COUPLINGSIZE =        0      H0 COUPLING   =       NO
    MAXITER        =       24      NUM PRINT     =       20
    NUM ROOTS      =        1      ICORE         =        1
    PRINT LVL      =        1      FCI           =      YES
    R CONV         = 1.00e-04      MIXED         =      YES
    E CONV         = 1.00e-06      MIXED4        =      YES
    R4S            =       NO      REPL OTF      =       NO
    DIAG METHOD    =      SEM      FOLLOW ROOT   =        0
    PRECONDITIONER = DAVIDSON      UPDATE        = DAVIDSON
    S              =   0.0000      Ms0           =      YES
    GUESS VECTOR   =  H0BLOCK      OPENTYPE      =  SINGLET
    COLLAPSE SIZE  =        1      HD AVG        = EVANGELISTI
    MAX NUM VECS   =       25      REF SYM       =     AUTO
    IOPEN        =      YES

    EX ALLOW       =  1  1 
    STATE AVERAGE  =  0(1.00) 

   ==> CI Orbital and Space information <==

   ------------------------------------------------------------------------------
               Space    Total    Ag   B1g   B2g   B3g    Au   B1u   B2u   B3u
   ------------------------------------------------------------------------------
                 Nso       28     7     1     3     3     1     7     3     3
                 Nmo       28     7     1     3     3     1     7     3     3
               Ndocc        1     1     0     0     0     0     0     0     0
               Nsocc        0     0     0     0     0     0     0     0     0
   ------------------------------------------------------------------------------
                                   CI Spaces
   ------------------------------------------------------------------------------
        Dropped DOCC        0     0     0     0     0     0     0     0     0
              Active       28     7     1     3     3     1     7     3     3
        Dropped UOCC        0     0     0     0     0     0     0     0     0
   ------------------------------------------------------------------------------

   ==> Setting up CI strings <==

    There are 28 alpha and 28 beta strings
    The CI space requires 136 (1.36E+02) determinants and 8 blocks

   ==> Transforming CI integrals <==

	Presorting SO-basis two-electron integrals.
	Sorting File: SO Ints (nn|nn) nbuckets = 1
	Transforming the one-electron integrals and constructing Fock matrices
	Starting first half-transformation.
	Sorting half-transformed integrals.
	First half integral transformation complete.
	Starting second half-transformation.
	Two-electron integral transformation complete.

   ==> Starting CI iterations <==

    H0 Block Eigenvalue =  -1.13493402

    Simultaneous Expansion Method (Block Davidson Method)
    Using 1 initial trial vectors

     Iter   Root       Total Energy       Delta E      C RMS

   @CI  0:     0     -1.134934023684   -1.8016E+00   3.4652E-01  
   @CI  1:     0     -1.169274952386   -3.4341E-02   7.6005E-02  
   @CI  2:     0     -1.170738452407   -1.4635E-03   1.1690E-02  
   @CI  3:     0     -1.170781856787   -4.3404E-05   2.3261E-03  
   @CI  4:     0     -1.170783082002   -1.2252E-06   2.8111E-04  
   @CI  5:     0     -1.170783099709   -1.7708E-08   3.0843E-05 c

   ==> Energetics <==

    SCF energy =           -1.130754123503088
    Total CI energy =      -1.170783099709371

   ==> FCI root 0 information <==

    FCI Root 0 energy =    -1.170783099709371

   The 20 most important determinants:

    *   1   -0.990114  (    0,    0)  1AgX 
    *   2    0.058232  (   16,   16)  2B1uX 
    *   3    0.049207  (   15,   16)  1B1uA 2B1uB 
    *   4    0.049207  (   16,   15)  1B1uB 2B1uA 
    *   5    0.046808  (   15,   15)  1B1uX 
    *   6    0.042231  (   22,   22)  1B2uX 
    *   7    0.042231  (   25,   25)  1B3uX 
    *   8    0.038742  (    1,    1)  2AgX 
    *   9    0.020421  (   16,   18)  2B1uA 4B1uB 
    *  10    0.020421  (   18,   16)  2B1uB 4B1uA 
    *  11    0.015825  (    1,    3)  2AgA 4AgB 
    *  12    0.015825  (    3,    1)  2AgB 4AgA 
    *  13    0.014783  (    1,    2)  2AgA 3AgB 
    *  14    0.014783  (    2,    1)  2AgB 3AgA 
    *  15    0.014692  (    3,    3)  4AgX 
    *  16    0.013496  (   15,   18)  1B1uA 4B1uB 
    *  17    0.013496  (   18,   15)  1B1uB 4B1uA 
    *  18    0.013493  (    2,    2)  3AgX 
    *  19    0.013318  (   18,   18)  4B1uX 
    *  20   -0.011349  (   25,   26)  1B3uA 2B3uB 

		 "A good bug is a dead bug" 

			 - Starship Troopers

		 "I didn't write FORTRAN.  That's the problem."

			 - Edward Valeev
Molecule: Setting geometry variable R to 2.000000

*** tstart() called on ed4
*** at Mon May  7 15:01:26 2018

   => Loading Basis Set <=

    Name: CC-PVTZ
    Role: ORBITAL
    Keyword: BASIS
    atoms 1-2 entry H          line    23 file /edfs/users/namvu/software/psi4/install/intel-release/share/psi4/basis/cc-pvtz.gbs 


         ---------------------------------------------------------
                                   SCF
            by Justin Turney, Rob Parrish, Andy Simmonett
                             and Daniel Smith
                             ROHF Reference
                        6 Threads,   2861 MiB Core
         ---------------------------------------------------------

  ==> Geometry <==

    Molecular point group: d2h
    Full point group: D_inf_h

    Geometry (in Bohr), charge = 0, multiplicity = 1:

       Center              X                  Y                   Z               Mass       
    ------------   -----------------  -----------------  -----------------  -----------------
           H          0.000000000000     0.000000000000    -1.000000000000     1.007825032070
           H          0.000000000000     0.000000000000     1.000000000000     1.007825032070

  Running in d2h symmetry.

  Rotational constants: A = ************  B =     29.86614  C =     29.86614 [cm^-1]
  Rotational constants: A = ************  B = 895364.34745  C = 895364.34745 [MHz]
  Nuclear repulsion =    0.500000000000000

  Charge       = 0
  Multiplicity = 1
  Electrons    = 2
  Nalpha       = 1
  Nbeta        = 1

  ==> Algorithm <==

  SCF Algorithm Type is DF.
  DIIS enabled.
  MOM disabled.
  Fractional occupation disabled.
  Guess Type is GWH.
  Energy threshold   = 1.00e-08
  Density threshold  = 1.00e-08
  Integral threshold = 0.00e+00

  ==> Primary Basis <==

  Basis Set: CC-PVTZ
    Blend: CC-PVTZ
    Number of shells: 12
    Number of basis function: 28
    Number of Cartesian functions: 30
    Spherical Harmonics?: true
    Max angular momentum: 2

   => Loading Basis Set <=

    Name: (CC-PVTZ AUX)
    Role: JKFIT
    Keyword: DF_BASIS_SCF
    atoms 1-2 entry H          line    51 file /edfs/users/namvu/software/psi4/install/intel-release/share/psi4/basis/cc-pvtz-jkfit.gbs 

  ==> Pre-Iterations <==

   -------------------------------------------------------
    Irrep   Nso     Nmo     Nalpha   Nbeta   Ndocc  Nsocc
   -------------------------------------------------------
     Ag         7       7       0       0       0       0
     B1g        1       1       0       0       0       0
     B2g        3       3       0       0       0       0
     B3g        3       3       0       0       0       0
     Au         1       1       0       0       0       0
     B1u        7       7       0       0       0       0
     B2u        3       3       0       0       0       0
     B3u        3       3       0       0       0       0
   -------------------------------------------------------
    Total      28      28       1       1       1       0
   -------------------------------------------------------

  ==> Integral Setup <==

  ==> DFJK: Density-Fitted J/K Matrices <==

    J tasked:                  Yes
    K tasked:                  Yes
    wK tasked:                  No
    OpenMP threads:              6
    Integrals threads:           6
    Memory (MB):              2145
    Algorithm:                Core
    Integral Cache:           NONE
    Schwarz Cutoff:          1E-12
    Fitting Condition:       1E-12

   => Auxiliary Basis Set <=

  Basis Set: (CC-PVTZ AUX)
    Blend: CC-PVTZ-JKFIT
    Number of shells: 20
    Number of basis function: 60
    Number of Cartesian functions: 70
    Spherical Harmonics?: true
    Max angular momentum: 3

  Minimum eigenvalue in the overlap matrix is 9.5278855591E-03.
  Using Symmetric Orthogonalization.

  SCF Guess: Generalized Wolfsberg-Helmholtz.

  ==> Iterations <==

                           Total Energy        Delta E     RMS |[F,P]|

    Occupation by irrep:
             Ag   B1g   B2g   B3g    Au   B1u   B2u   B3u 
    DOCC [     1,    0,    0,    0,    0,    0,    0,    0 ]
    SOCC [     0,    0,    0,    0,    0,    0,    0,    0 ]

   @DF-ROHF iter   1:     5.32421532487112    5.32422e+00   3.15578e-01 
   @DF-ROHF iter   2:    -1.08878403120531   -6.41300e+00   3.71426e-03 DIIS
   @DF-ROHF iter   3:    -1.09098376957683   -2.19974e-03   8.19674e-04 DIIS
   @DF-ROHF iter   4:    -1.09108386597305   -1.00096e-04   5.97048e-05 DIIS
   @DF-ROHF iter   5:    -1.09108440225532   -5.36282e-07   2.47925e-06 DIIS
   @DF-ROHF iter   6:    -1.09108440276674   -5.11418e-10   1.48796e-07 DIIS
   @DF-ROHF iter   7:    -1.09108440276909   -2.35190e-12   4.85206e-09 DIIS

  ==> Post-Iterations <==

    Orbital Energies (a.u.)
    -----------------------

    Doubly Occupied:                                                      

       1Ag    -0.513681  

    Singly Occupied:                                                      

    

    Virtual:                                                              

       1B1u    0.113783     2Ag     0.333288     2B1u    0.528446  
       1B2u    0.668974     1B3u    0.668974     3Ag     0.984473  
       1B3g    1.047969     1B2g    1.047969     3B1u    1.463597  
       4Ag     2.541126     4B1u    2.651508     2B3u    3.186279  
       2B2u    3.186279     5Ag     3.228206     1B1g    3.228206  
       6Ag     3.386771     5B1u    3.771488     1Au     3.771488  
       3B2u    3.923617     3B3u    3.923617     2B3g    4.002644  
       2B2g    4.002644     6B1u    4.064746     3B3g    4.765624  
       3B2g    4.765624     7Ag     4.853320     7B1u    6.110670  

    Final Occupation by Irrep:
             Ag   B1g   B2g   B3g    Au   B1u   B2u   B3u 
    DOCC [     1,    0,    0,    0,    0,    0,    0,    0 ]
    SOCC [     0,    0,    0,    0,    0,    0,    0,    0 ]

  Energy converged.

  @DF-ROHF Final Energy:    -1.09108440276909

   => Energetics <=

    Nuclear Repulsion Energy =              0.5000000000000000
    One-Electron Energy =                  -2.1548073679723263
    Two-Electron Energy =                   0.5637229652032367
    Total Energy =                         -1.0910844027690896



Properties will be evaluated at   0.000000,   0.000000,   0.000000 Bohr

Properties computed using the SCF density matrix

  Nuclear Dipole Moment: (a.u.)
     X:     0.0000      Y:     0.0000      Z:     0.0000

  Electronic Dipole Moment: (a.u.)
     X:     0.0000      Y:     0.0000      Z:     0.0000

  Dipole Moment: (a.u.)
     X:     0.0000      Y:     0.0000      Z:     0.0000     Total:     0.0000

  Dipole Moment: (Debye)
     X:     0.0000      Y:     0.0000      Z:     0.0000     Total:     0.0000


*** tstop() called on ed4 at Mon May  7 15:01:27 2018
Module time:
	user time   =       2.15 seconds =       0.04 minutes
	system time =       0.11 seconds =       0.00 minutes
	total time  =          1 seconds =       0.02 minutes
Total time:
	user time   =       8.75 seconds =       0.15 minutes
	system time =       0.47 seconds =       0.01 minutes
	total time  =          2 seconds =       0.03 minutes
 MINTS: Wrapper to libmints.
   by Justin Turney

   Calculation information:
      Number of threads:                 6
      Number of atoms:                   2
      Number of AO shells:              12
      Number of SO shells:               6
      Number of primitives:             16
      Number of atomic orbitals:        30
      Number of basis functions:        28

      Number of irreps:                  8
      Integral cutoff                 0.00e+00
      Number of functions per irrep: [   7    1    3    3    1    7    3    3 ]

 OEINTS: Overlap, kinetic, potential, dipole, and quadrupole integrals
         stored in file 35.

      Computing two-electron integrals...done
      Computed 10725 non-zero two-electron integrals.
        Stored in file 33.


         ---------------------------------------------------------
                          Configuration Interaction
                            (a 'D E T C I' module)

                 C. David Sherrill, Daniel G. A. Smith, and
                              Matt L. Leininger
         ---------------------------------------------------------

Warning: iopen=0,opentype!=closed. Making iopen=1

   ==> Parameters <==

    EX LEVEL       =        2      H0 BLOCKSIZE  =     1000
    VAL EX LEVEL   =        0      H0 GUESS SIZE =     1000
    H0COUPLINGSIZE =        0      H0 COUPLING   =       NO
    MAXITER        =       24      NUM PRINT     =       20
    NUM ROOTS      =        1      ICORE         =        1
    PRINT LVL      =        1      FCI           =      YES
    R CONV         = 1.00e-04      MIXED         =      YES
    E CONV         = 1.00e-06      MIXED4        =      YES
    R4S            =       NO      REPL OTF      =       NO
    DIAG METHOD    =      SEM      FOLLOW ROOT   =        0
    PRECONDITIONER = DAVIDSON      UPDATE        = DAVIDSON
    S              =   0.0000      Ms0           =      YES
    GUESS VECTOR   =  H0BLOCK      OPENTYPE      =  SINGLET
    COLLAPSE SIZE  =        1      HD AVG        = EVANGELISTI
    MAX NUM VECS   =       25      REF SYM       =     AUTO
    IOPEN        =      YES

    EX ALLOW       =  1  1 
    STATE AVERAGE  =  0(1.00) 

   ==> CI Orbital and Space information <==

   ------------------------------------------------------------------------------
               Space    Total    Ag   B1g   B2g   B3g    Au   B1u   B2u   B3u
   ------------------------------------------------------------------------------
                 Nso       28     7     1     3     3     1     7     3     3
                 Nmo       28     7     1     3     3     1     7     3     3
               Ndocc        1     1     0     0     0     0     0     0     0
               Nsocc        0     0     0     0     0     0     0     0     0
   ------------------------------------------------------------------------------
                                   CI Spaces
   ------------------------------------------------------------------------------
        Dropped DOCC        0     0     0     0     0     0     0     0     0
              Active       28     7     1     3     3     1     7     3     3
        Dropped UOCC        0     0     0     0     0     0     0     0     0
   ------------------------------------------------------------------------------

   ==> Setting up CI strings <==

    There are 28 alpha and 28 beta strings
    The CI space requires 136 (1.36E+02) determinants and 8 blocks

   ==> Transforming CI integrals <==

	Presorting SO-basis two-electron integrals.
	Sorting File: SO Ints (nn|nn) nbuckets = 1
	Transforming the one-electron integrals and constructing Fock matrices
	Starting first half-transformation.
	Sorting half-transformed integrals.
	First half integral transformation complete.
	Starting second half-transformation.
	Two-electron integral transformation complete.

   ==> Starting CI iterations <==

    H0 Block Eigenvalue =  -1.09775939

    Simultaneous Expansion Method (Block Davidson Method)
    Using 1 initial trial vectors

     Iter   Root       Total Energy       Delta E      C RMS

   @CI  0:     0     -1.097759393629   -1.5978E+00   3.1364E-01  
   @CI  1:     0     -1.134104841606   -3.6345E-02   8.6245E-02  
   @CI  2:     0     -1.136079459443   -1.9746E-03   1.4292E-02  
   @CI  3:     0     -1.136168619356   -8.9160E-05   3.2565E-03  
   @CI  4:     0     -1.136171634259   -3.0149E-06   4.3966E-04  
   @CI  5:     0     -1.136171688264   -5.4005E-08   5.2207E-05 c

   ==> Energetics <==

    SCF energy =           -1.091084402769090
    Total CI energy =      -1.136171688264340

   ==> FCI root 0 information <==

    FCI Root 0 energy =    -1.136171688264340

   The 20 most important determinants:

    *   1   -0.983145  (    0,    0)  1AgX 
    *   2    0.099037  (   15,   15)  1B1uX 
    *   3    0.073589  (   15,   16)  1B1uA 2B1uB 
    *   4    0.073589  (   16,   15)  1B1uB 2B1uA 
    *   5    0.061638  (   16,   16)  2B1uX 
    *   6    0.041613  (   25,   25)  1B3uX 
    *   7    0.041613  (   22,   22)  1B2uX 
    *   8    0.039096  (    1,    1)  2AgX 
    *   9    0.015777  (    2,    2)  3AgX 
    *  10    0.014748  (    1,    2)  2AgA 3AgB 
    *  11    0.014748  (    2,    1)  2AgB 3AgA 
    *  12   -0.014646  (    0,    1)  1AgA 2AgB 
    *  13   -0.014646  (    1,    0)  1AgB 2AgA 
    *  14    0.013341  (   16,   17)  2B1uA 3B1uB 
    *  15    0.013341  (   17,   16)  2B1uB 3B1uA 
    *  16    0.013282  (   15,   17)  1B1uA 3B1uB 
    *  17    0.013282  (   17,   15)  1B1uB 3B1uA 
    *  18    0.012949  (   16,   18)  2B1uA 4B1uB 
    *  19    0.012949  (   18,   16)  2B1uB 4B1uA 
    *  20    0.011557  (   15,   18)  1B1uA 4B1uB 

		 "A good bug is a dead bug" 

			 - Starship Troopers

		 "I didn't write FORTRAN.  That's the problem."

			 - Edward Valeev
Molecule: Setting geometry variable R to 2.500000

*** tstart() called on ed4
*** at Mon May  7 15:01:27 2018

   => Loading Basis Set <=

    Name: CC-PVTZ
    Role: ORBITAL
    Keyword: BASIS
    atoms 1-2 entry H          line    23 file /edfs/users/namvu/software/psi4/install/intel-release/share/psi4/basis/cc-pvtz.gbs 


         ---------------------------------------------------------
                                   SCF
            by Justin Turney, Rob Parrish, Andy Simmonett
                             and Daniel Smith
                             ROHF Reference
                        6 Threads,   2861 MiB Core
         ---------------------------------------------------------

  ==> Geometry <==

    Molecular point group: d2h
    Full point group: D_inf_h

    Geometry (in Bohr), charge = 0, multiplicity = 1:

       Center              X                  Y                   Z               Mass       
    ------------   -----------------  -----------------  -----------------  -----------------
           H          0.000000000000     0.000000000000    -1.250000000000     1.007825032070
           H          0.000000000000     0.000000000000     1.250000000000     1.007825032070

  Running in d2h symmetry.

  Rotational constants: A = ************  B =     19.11433  C =     19.11433 [cm^-1]
  Rotational constants: A = ************  B = 573033.18237  C = 573033.18237 [MHz]
  Nuclear repulsion =    0.400000000000000

  Charge       = 0
  Multiplicity = 1
  Electrons    = 2
  Nalpha       = 1
  Nbeta        = 1

  ==> Algorithm <==

  SCF Algorithm Type is DF.
  DIIS enabled.
  MOM disabled.
  Fractional occupation disabled.
  Guess Type is GWH.
  Energy threshold   = 1.00e-08
  Density threshold  = 1.00e-08
  Integral threshold = 0.00e+00

  ==> Primary Basis <==

  Basis Set: CC-PVTZ
    Blend: CC-PVTZ
    Number of shells: 12
    Number of basis function: 28
    Number of Cartesian functions: 30
    Spherical Harmonics?: true
    Max angular momentum: 2

   => Loading Basis Set <=

    Name: (CC-PVTZ AUX)
    Role: JKFIT
    Keyword: DF_BASIS_SCF
    atoms 1-2 entry H          line    51 file /edfs/users/namvu/software/psi4/install/intel-release/share/psi4/basis/cc-pvtz-jkfit.gbs 

  ==> Pre-Iterations <==

   -------------------------------------------------------
    Irrep   Nso     Nmo     Nalpha   Nbeta   Ndocc  Nsocc
   -------------------------------------------------------
     Ag         7       7       0       0       0       0
     B1g        1       1       0       0       0       0
     B2g        3       3       0       0       0       0
     B3g        3       3       0       0       0       0
     Au         1       1       0       0       0       0
     B1u        7       7       0       0       0       0
     B2u        3       3       0       0       0       0
     B3u        3       3       0       0       0       0
   -------------------------------------------------------
    Total      28      28       1       1       1       0
   -------------------------------------------------------

  ==> Integral Setup <==

  ==> DFJK: Density-Fitted J/K Matrices <==

    J tasked:                  Yes
    K tasked:                  Yes
    wK tasked:                  No
    OpenMP threads:              6
    Integrals threads:           6
    Memory (MB):              2145
    Algorithm:                Core
    Integral Cache:           NONE
    Schwarz Cutoff:          1E-12
    Fitting Condition:       1E-12

   => Auxiliary Basis Set <=

  Basis Set: (CC-PVTZ AUX)
    Blend: CC-PVTZ-JKFIT
    Number of shells: 20
    Number of basis function: 60
    Number of Cartesian functions: 70
    Spherical Harmonics?: true
    Max angular momentum: 3

  Minimum eigenvalue in the overlap matrix is 3.4721471634E-02.
  Using Symmetric Orthogonalization.

  SCF Guess: Generalized Wolfsberg-Helmholtz.

  ==> Iterations <==

                           Total Energy        Delta E     RMS |[F,P]|

    Occupation by irrep:
             Ag   B1g   B2g   B3g    Au   B1u   B2u   B3u 
    DOCC [     1,    0,    0,    0,    0,    0,    0,    0 ]
    SOCC [     0,    0,    0,    0,    0,    0,    0,    0 ]

   @DF-ROHF iter   1:     2.95510575576804    2.95511e+00   1.86303e-01 
   @DF-ROHF iter   2:    -1.03607205846517   -3.99118e+00   4.58936e-03 DIIS
   @DF-ROHF iter   3:    -1.03815247800479   -2.08042e-03   7.17302e-04 DIIS
   @DF-ROHF iter   4:    -1.03820542902558   -5.29510e-05   4.60783e-05 DIIS
   @DF-ROHF iter   5:    -1.03820566114898   -2.32123e-07   1.37363e-06 DIIS
   @DF-ROHF iter   6:    -1.03820566149093   -3.41946e-10   1.41732e-07 DIIS
   @DF-ROHF iter   7:    -1.03820566149610   -5.17364e-12   8.96590e-09 DIIS

  ==> Post-Iterations <==

    Orbital Energies (a.u.)
    -----------------------

    Doubly Occupied:                                                      

       1Ag    -0.465766  

    Singly Occupied:                                                      

    

    Virtual:                                                              

       1B1u    0.063908     2Ag     0.354504     2B1u    0.468849  
       1B3u    0.664693     1B2u    0.664693     3Ag     0.878574  
       1B2g    0.979839     1B3g    0.979839     3B1u    1.390631  
       4Ag     2.571834     4B1u    2.704648     2B2u    3.105760  
       2B3u    3.105760     5Ag     3.138786     6Ag     3.333316  
       1B1g    3.333316     1Au     3.586543     5B1u    3.586543  
       3B3u    3.881009     3B2u    3.881009     2B2g    3.923064  
       2B3g    3.923064     6B1u    4.065393     3B3g    4.251078  
       3B2g    4.251078     7Ag     4.436656     7B1u    5.474370  

    Final Occupation by Irrep:
             Ag   B1g   B2g   B3g    Au   B1u   B2u   B3u 
    DOCC [     1,    0,    0,    0,    0,    0,    0,    0 ]
    SOCC [     0,    0,    0,    0,    0,    0,    0,    0 ]

  Energy converged.

  @DF-ROHF Final Energy:    -1.03820566149610

   => Energetics <=

    Nuclear Repulsion Energy =              0.4000000000000000
    One-Electron Energy =                  -1.9448789910235349
    Two-Electron Energy =                   0.5066733295274337
    Total Energy =                         -1.0382056614961013



Properties will be evaluated at   0.000000,   0.000000,   0.000000 Bohr

Properties computed using the SCF density matrix

  Nuclear Dipole Moment: (a.u.)
     X:     0.0000      Y:     0.0000      Z:     0.0000

  Electronic Dipole Moment: (a.u.)
     X:     0.0000      Y:     0.0000      Z:     0.0000

  Dipole Moment: (a.u.)
     X:     0.0000      Y:     0.0000      Z:     0.0000     Total:     0.0000

  Dipole Moment: (Debye)
     X:     0.0000      Y:     0.0000      Z:     0.0000     Total:     0.0000


*** tstop() called on ed4 at Mon May  7 15:01:27 2018
Module time:
	user time   =       2.13 seconds =       0.04 minutes
	system time =       0.12 seconds =       0.00 minutes
	total time  =          0 seconds =       0.00 minutes
Total time:
	user time   =      12.15 seconds =       0.20 minutes
	system time =       0.68 seconds =       0.01 minutes
	total time  =          2 seconds =       0.03 minutes
 MINTS: Wrapper to libmints.
   by Justin Turney

   Calculation information:
      Number of threads:                 6
      Number of atoms:                   2
      Number of AO shells:              12
      Number of SO shells:               6
      Number of primitives:             16
      Number of atomic orbitals:        30
      Number of basis functions:        28

      Number of irreps:                  8
      Integral cutoff                 0.00e+00
      Number of functions per irrep: [   7    1    3    3    1    7    3    3 ]

 OEINTS: Overlap, kinetic, potential, dipole, and quadrupole integrals
         stored in file 35.

      Computing two-electron integrals...done
      Computed 10727 non-zero two-electron integrals.
        Stored in file 33.


         ---------------------------------------------------------
                          Configuration Interaction
                            (a 'D E T C I' module)

                 C. David Sherrill, Daniel G. A. Smith, and
                              Matt L. Leininger
         ---------------------------------------------------------

Warning: iopen=0,opentype!=closed. Making iopen=1

   ==> Parameters <==

    EX LEVEL       =        2      H0 BLOCKSIZE  =     1000
    VAL EX LEVEL   =        0      H0 GUESS SIZE =     1000
    H0COUPLINGSIZE =        0      H0 COUPLING   =       NO
    MAXITER        =       24      NUM PRINT     =       20
    NUM ROOTS      =        1      ICORE         =        1
    PRINT LVL      =        1      FCI           =      YES
    R CONV         = 1.00e-04      MIXED         =      YES
    E CONV         = 1.00e-06      MIXED4        =      YES
    R4S            =       NO      REPL OTF      =       NO
    DIAG METHOD    =      SEM      FOLLOW ROOT   =        0
    PRECONDITIONER = DAVIDSON      UPDATE        = DAVIDSON
    S              =   0.0000      Ms0           =      YES
    GUESS VECTOR   =  H0BLOCK      OPENTYPE      =  SINGLET
    COLLAPSE SIZE  =        1      HD AVG        = EVANGELISTI
    MAX NUM VECS   =       25      REF SYM       =     AUTO
    IOPEN        =      YES

    EX ALLOW       =  1  1 
    STATE AVERAGE  =  0(1.00) 

   ==> CI Orbital and Space information <==

   ------------------------------------------------------------------------------
               Space    Total    Ag   B1g   B2g   B3g    Au   B1u   B2u   B3u
   ------------------------------------------------------------------------------
                 Nso       28     7     1     3     3     1     7     3     3
                 Nmo       28     7     1     3     3     1     7     3     3
               Ndocc        1     1     0     0     0     0     0     0     0
               Nsocc        0     0     0     0     0     0     0     0     0
   ------------------------------------------------------------------------------
                                   CI Spaces
   ------------------------------------------------------------------------------
        Dropped DOCC        0     0     0     0     0     0     0     0     0
              Active       28     7     1     3     3     1     7     3     3
        Dropped UOCC        0     0     0     0     0     0     0     0     0
   ------------------------------------------------------------------------------

   ==> Setting up CI strings <==

    There are 28 alpha and 28 beta strings
    The CI space requires 136 (1.36E+02) determinants and 8 blocks

   ==> Transforming CI integrals <==

	Presorting SO-basis two-electron integrals.
	Sorting File: SO Ints (nn|nn) nbuckets = 1
	Transforming the one-electron integrals and constructing Fock matrices
	Starting first half-transformation.
	Sorting half-transformed integrals.
	First half integral transformation complete.
	Starting second half-transformation.
	Two-electron integral transformation complete.

   ==> Starting CI iterations <==

    H0 Block Eigenvalue =  -1.05533231

    Simultaneous Expansion Method (Block Davidson Method)
    Using 1 initial trial vectors

     Iter   Root       Total Energy       Delta E      C RMS

   @CI  0:     0     -1.055332306479   -1.4553E+00   2.7341E-01  
   @CI  1:     0     -1.089355174087   -3.4023E-02   8.9224E-02  
   @CI  2:     0     -1.091745819021   -2.3906E-03   1.6942E-02  
   @CI  3:     0     -1.091893588234   -1.4777E-04   3.8836E-03  
   @CI  4:     0     -1.091899962761   -6.3745E-06   5.6723E-04  
   @CI  5:     0     -1.091900084126   -1.2137E-07   8.3379E-05 c

   ==> Energetics <==

    SCF energy =           -1.038205661496101
    Total CI energy =      -1.091900084126410

   ==> FCI root 0 information <==

    FCI Root 0 energy =    -1.091900084126410

   The 20 most important determinants:

    *   1   -0.969400  (    0,    0)  1AgX 
    *   2    0.176289  (   15,   15)  1B1uX 
    *   3    0.093200  (   15,   16)  1B1uA 2B1uB 
    *   4    0.093200  (   16,   15)  1B1uB 2B1uA 
    *   5    0.055980  (   16,   16)  2B1uX 
    *   6    0.037257  (   22,   22)  1B2uX 
    *   7    0.037257  (   25,   25)  1B3uX 
    *   8    0.035371  (    1,    1)  2AgX 
    *   9   -0.023981  (    0,    1)  1AgA 2AgB 
    *  10   -0.023981  (    1,    0)  1AgB 2AgA 
    *  11    0.018081  (    2,    2)  3AgX 
    *  12    0.017076  (   15,   17)  1B1uA 3B1uB 
    *  13    0.017076  (   17,   15)  1B1uB 3B1uA 
    *  14    0.015959  (    0,    2)  1AgA 3AgB 
    *  15    0.015959  (    2,    0)  1AgB 3AgA 
    *  16    0.014976  (    1,    2)  2AgA 3AgB 
    *  17    0.014976  (    2,    1)  2AgB 3AgA 
    *  18    0.012484  (   16,   17)  2B1uA 3B1uB 
    *  19    0.012484  (   17,   16)  2B1uB 3B1uA 
    *  20    0.010624  (   15,   18)  1B1uA 4B1uB 

		 "A good bug is a dead bug" 

			 - Starship Troopers

		 "I didn't write FORTRAN.  That's the problem."

			 - Edward Valeev
Molecule: Setting geometry variable R to 3.000000

*** tstart() called on ed4
*** at Mon May  7 15:01:28 2018

   => Loading Basis Set <=

    Name: CC-PVTZ
    Role: ORBITAL
    Keyword: BASIS
    atoms 1-2 entry H          line    23 file /edfs/users/namvu/software/psi4/install/intel-release/share/psi4/basis/cc-pvtz.gbs 


         ---------------------------------------------------------
                                   SCF
            by Justin Turney, Rob Parrish, Andy Simmonett
                             and Daniel Smith
                             ROHF Reference
                        6 Threads,   2861 MiB Core
         ---------------------------------------------------------

  ==> Geometry <==

    Molecular point group: d2h
    Full point group: D_inf_h

    Geometry (in Bohr), charge = 0, multiplicity = 1:

       Center              X                  Y                   Z               Mass       
    ------------   -----------------  -----------------  -----------------  -----------------
           H          0.000000000000     0.000000000000    -1.500000000000     1.007825032070
           H          0.000000000000     0.000000000000     1.500000000000     1.007825032070

  Running in d2h symmetry.

  Rotational constants: A = ************  B =     13.27384  C =     13.27384 [cm^-1]
  Rotational constants: A = ************  B = 397939.70998  C = 397939.70998 [MHz]
  Nuclear repulsion =    0.333333333333333

  Charge       = 0
  Multiplicity = 1
  Electrons    = 2
  Nalpha       = 1
  Nbeta        = 1

  ==> Algorithm <==

  SCF Algorithm Type is DF.
  DIIS enabled.
  MOM disabled.
  Fractional occupation disabled.
  Guess Type is GWH.
  Energy threshold   = 1.00e-08
  Density threshold  = 1.00e-08
  Integral threshold = 0.00e+00

  ==> Primary Basis <==

  Basis Set: CC-PVTZ
    Blend: CC-PVTZ
    Number of shells: 12
    Number of basis function: 28
    Number of Cartesian functions: 30
    Spherical Harmonics?: true
    Max angular momentum: 2

   => Loading Basis Set <=

    Name: (CC-PVTZ AUX)
    Role: JKFIT
    Keyword: DF_BASIS_SCF
    atoms 1-2 entry H          line    51 file /edfs/users/namvu/software/psi4/install/intel-release/share/psi4/basis/cc-pvtz-jkfit.gbs 

  ==> Pre-Iterations <==

   -------------------------------------------------------
    Irrep   Nso     Nmo     Nalpha   Nbeta   Ndocc  Nsocc
   -------------------------------------------------------
     Ag         7       7       0       0       0       0
     B1g        1       1       0       0       0       0
     B2g        3       3       0       0       0       0
     B3g        3       3       0       0       0       0
     Au         1       1       0       0       0       0
     B1u        7       7       0       0       0       0
     B2u        3       3       0       0       0       0
     B3u        3       3       0       0       0       0
   -------------------------------------------------------
    Total      28      28       1       1       1       0
   -------------------------------------------------------

  ==> Integral Setup <==

  ==> DFJK: Density-Fitted J/K Matrices <==

    J tasked:                  Yes
    K tasked:                  Yes
    wK tasked:                  No
    OpenMP threads:              6
    Integrals threads:           6
    Memory (MB):              2145
    Algorithm:                Core
    Integral Cache:           NONE
    Schwarz Cutoff:          1E-12
    Fitting Condition:       1E-12

   => Auxiliary Basis Set <=

  Basis Set: (CC-PVTZ AUX)
    Blend: CC-PVTZ-JKFIT
    Number of shells: 20
    Number of basis function: 60
    Number of Cartesian functions: 70
    Spherical Harmonics?: true
    Max angular momentum: 3

  Minimum eigenvalue in the overlap matrix is 7.2404051076E-02.
  Using Symmetric Orthogonalization.

  SCF Guess: Generalized Wolfsberg-Helmholtz.

  ==> Iterations <==

                           Total Energy        Delta E     RMS |[F,P]|

    Occupation by irrep:
             Ag   B1g   B2g   B3g    Au   B1u   B2u   B3u 
    DOCC [     1,    0,    0,    0,    0,    0,    0,    0 ]
    SOCC [     0,    0,    0,    0,    0,    0,    0,    0 ]

   @DF-ROHF iter   1:     3.53270342677115    3.53270e+00   2.14995e-01 
   @DF-ROHF iter   2:    -0.98708459903648   -4.51979e+00   4.90674e-03 DIIS
   @DF-ROHF iter   3:    -0.98853833091922   -1.45373e-03   9.06977e-04 DIIS
   @DF-ROHF iter   4:    -0.98859550252692   -5.71716e-05   5.50909e-05 DIIS
   @DF-ROHF iter   5:    -0.98859588208408   -3.79557e-07   1.84908e-06 DIIS
   @DF-ROHF iter   6:    -0.98859588264670   -5.62623e-10   1.09442e-07 DIIS
   @DF-ROHF iter   7:    -0.98859588264864   -1.93956e-12   6.41127e-09 DIIS

  ==> Post-Iterations <==

    Orbital Energies (a.u.)
    -----------------------

    Doubly Occupied:                                                      

       1Ag    -0.429422  

    Singly Occupied:                                                      

    

    Virtual:                                                              

       1B1u    0.017472     2Ag     0.373500     2B1u    0.436214  
       1B2u    0.671564     1B3u    0.671564     3Ag     0.781484  
       1B3g    0.918159     1B2g    0.918159     3B1u    1.296898  
       4Ag     2.484292     4B1u    2.657289     5Ag     3.148214  
       2B2u    3.196914     2B3u    3.196914     1B1g    3.398659  
       6Ag     3.398659     1Au     3.484341     5B1u    3.484341  
       2B3g    3.709914     2B2g    3.709914     3B2u    3.854397  
       3B3u    3.854397     6B1u    3.925331     3B3g    4.020683  
       3B2g    4.020683     7Ag     4.159882     7B1u    4.873377  

    Final Occupation by Irrep:
             Ag   B1g   B2g   B3g    Au   B1u   B2u   B3u 
    DOCC [     1,    0,    0,    0,    0,    0,    0,    0 ]
    SOCC [     0,    0,    0,    0,    0,    0,    0,    0 ]

  Energy converged.

  @DF-ROHF Final Energy:    -0.98859588264864

   => Energetics <=

    Nuclear Repulsion Energy =              0.3333333333333333
    One-Electron Energy =                  -1.7850137834185387
    Two-Electron Energy =                   0.4630845674365616
    Total Energy =                         -0.9885958826486438



Properties will be evaluated at   0.000000,   0.000000,   0.000000 Bohr

Properties computed using the SCF density matrix

  Nuclear Dipole Moment: (a.u.)
     X:     0.0000      Y:     0.0000      Z:     0.0000

  Electronic Dipole Moment: (a.u.)
     X:     0.0000      Y:     0.0000      Z:     0.0000

  Dipole Moment: (a.u.)
     X:     0.0000      Y:     0.0000      Z:     0.0000     Total:     0.0000

  Dipole Moment: (Debye)
     X:     0.0000      Y:     0.0000      Z:     0.0000     Total:     0.0000


*** tstop() called on ed4 at Mon May  7 15:01:28 2018
Module time:
	user time   =       2.18 seconds =       0.04 minutes
	system time =       0.11 seconds =       0.00 minutes
	total time  =          0 seconds =       0.00 minutes
Total time:
	user time   =      15.67 seconds =       0.26 minutes
	system time =       0.84 seconds =       0.01 minutes
	total time  =          3 seconds =       0.05 minutes
 MINTS: Wrapper to libmints.
   by Justin Turney

   Calculation information:
      Number of threads:                 6
      Number of atoms:                   2
      Number of AO shells:              12
      Number of SO shells:               6
      Number of primitives:             16
      Number of atomic orbitals:        30
      Number of basis functions:        28

      Number of irreps:                  8
      Integral cutoff                 0.00e+00
      Number of functions per irrep: [   7    1    3    3    1    7    3    3 ]

 OEINTS: Overlap, kinetic, potential, dipole, and quadrupole integrals
         stored in file 35.

      Computing two-electron integrals...done
      Computed 10735 non-zero two-electron integrals.
        Stored in file 33.


         ---------------------------------------------------------
                          Configuration Interaction
                            (a 'D E T C I' module)

                 C. David Sherrill, Daniel G. A. Smith, and
                              Matt L. Leininger
         ---------------------------------------------------------

Warning: iopen=0,opentype!=closed. Making iopen=1

   ==> Parameters <==

    EX LEVEL       =        2      H0 BLOCKSIZE  =     1000
    VAL EX LEVEL   =        0      H0 GUESS SIZE =     1000
    H0COUPLINGSIZE =        0      H0 COUPLING   =       NO
    MAXITER        =       24      NUM PRINT     =       20
    NUM ROOTS      =        1      ICORE         =        1
    PRINT LVL      =        1      FCI           =      YES
    R CONV         = 1.00e-04      MIXED         =      YES
    E CONV         = 1.00e-06      MIXED4        =      YES
    R4S            =       NO      REPL OTF      =       NO
    DIAG METHOD    =      SEM      FOLLOW ROOT   =        0
    PRECONDITIONER = DAVIDSON      UPDATE        = DAVIDSON
    S              =   0.0000      Ms0           =      YES
    GUESS VECTOR   =  H0BLOCK      OPENTYPE      =  SINGLET
    COLLAPSE SIZE  =        1      HD AVG        = EVANGELISTI
    MAX NUM VECS   =       25      REF SYM       =     AUTO
    IOPEN        =      YES

    EX ALLOW       =  1  1 
    STATE AVERAGE  =  0(1.00) 

   ==> CI Orbital and Space information <==

   ------------------------------------------------------------------------------
               Space    Total    Ag   B1g   B2g   B3g    Au   B1u   B2u   B3u
   ------------------------------------------------------------------------------
                 Nso       28     7     1     3     3     1     7     3     3
                 Nmo       28     7     1     3     3     1     7     3     3
               Ndocc        1     1     0     0     0     0     0     0     0
               Nsocc        0     0     0     0     0     0     0     0     0
   ------------------------------------------------------------------------------
                                   CI Spaces
   ------------------------------------------------------------------------------
        Dropped DOCC        0     0     0     0     0     0     0     0     0
              Active       28     7     1     3     3     1     7     3     3
        Dropped UOCC        0     0     0     0     0     0     0     0     0
   ------------------------------------------------------------------------------

   ==> Setting up CI strings <==

    There are 28 alpha and 28 beta strings
    The CI space requires 136 (1.36E+02) determinants and 8 blocks

   ==> Transforming CI integrals <==

	Presorting SO-basis two-electron integrals.
	Sorting File: SO Ints (nn|nn) nbuckets = 1
	Transforming the one-electron integrals and constructing Fock matrices
	Starting first half-transformation.
	Sorting half-transformed integrals.
	First half integral transformation complete.
	Starting second half-transformation.
	Two-electron integral transformation complete.

   ==> Starting CI iterations <==

    H0 Block Eigenvalue =  -1.04213418

    Simultaneous Expansion Method (Block Davidson Method)
    Using 1 initial trial vectors

     Iter   Root       Total Energy       Delta E      C RMS

   @CI  0:     0     -1.042134184263   -1.3755E+00   1.7699E-01  
   @CI  1:     0     -1.054571286760   -1.2437E-02   4.2985E-02  
   @CI  2:     0     -1.055187226242   -6.1594E-04   9.9192E-03  
   @CI  3:     0     -1.055258930513   -7.1704E-05   3.2130E-03  
   @CI  4:     0     -1.055262807798   -3.8773E-06   5.8071E-04  
   @CI  5:     0     -1.055262962116   -1.5432E-07   1.1932E-04  
   @CI  6:     0     -1.055262965696   -3.5795E-09   1.1880E-05 c

   ==> Energetics <==

    SCF energy =           -0.988595882648644
    Total CI energy =      -1.055262965695651

   ==> FCI root 0 information <==

    FCI Root 0 energy =    -1.055262965695651

   The 20 most important determinants:

    *   1    0.944779  (    0,    0)  1AgX 
    *   2   -0.271645  (   15,   15)  1B1uX 
    *   3   -0.105518  (   15,   16)  1B1uA 2B1uB 
    *   4   -0.105518  (   16,   15)  1B1uB 2B1uA 
    *   5   -0.046896  (   16,   16)  2B1uX 
    *   6    0.036133  (    0,    1)  1AgA 2AgB 
    *   7    0.036133  (    1,    0)  1AgB 2AgA 
    *   8   -0.030119  (   22,   22)  1B2uX 
    *   9   -0.030119  (   25,   25)  1B3uX 
    *  10   -0.027905  (    1,    1)  2AgX 
    *  11    0.026015  (    0,    2)  1AgA 3AgB 
    *  12    0.026015  (    2,    0)  1AgB 3AgA 
    *  13   -0.019388  (    2,    2)  3AgX 
    *  14   -0.017589  (   15,   17)  1B1uA 3B1uB 
    *  15   -0.017589  (   17,   15)  1B1uB 3B1uA 
    *  16    0.014934  (    1,    2)  2AgA 3AgB 
    *  17    0.014934  (    2,    1)  2AgB 3AgA 
    *  18   -0.010655  (   15,   18)  1B1uA 4B1uB 
    *  19   -0.010655  (   18,   15)  1B1uB 4B1uA 
    *  20    0.009918  (    0,    3)  1AgA 4AgB 

		 "A good bug is a dead bug" 

			 - Starship Troopers

		 "I didn't write FORTRAN.  That's the problem."

			 - Edward Valeev
Molecule: Setting geometry variable R to 3.500000

*** tstart() called on ed4
*** at Mon May  7 15:01:28 2018

   => Loading Basis Set <=

    Name: CC-PVTZ
    Role: ORBITAL
    Keyword: BASIS
    atoms 1-2 entry H          line    23 file /edfs/users/namvu/software/psi4/install/intel-release/share/psi4/basis/cc-pvtz.gbs 


         ---------------------------------------------------------
                                   SCF
            by Justin Turney, Rob Parrish, Andy Simmonett
                             and Daniel Smith
                             ROHF Reference
                        6 Threads,   2861 MiB Core
         ---------------------------------------------------------

  ==> Geometry <==

    Molecular point group: d2h
    Full point group: D_inf_h

    Geometry (in Bohr), charge = 0, multiplicity = 1:

       Center              X                  Y                   Z               Mass       
    ------------   -----------------  -----------------  -----------------  -----------------
           H          0.000000000000     0.000000000000    -1.750000000000     1.007825032070
           H          0.000000000000     0.000000000000     1.750000000000     1.007825032070

  Running in d2h symmetry.

  Rotational constants: A = ************  B =      9.75221  C =      9.75221 [cm^-1]
  Rotational constants: A = ************  B = 292363.86855  C = 292363.86855 [MHz]
  Nuclear repulsion =    0.285714285714286

  Charge       = 0
  Multiplicity = 1
  Electrons    = 2
  Nalpha       = 1
  Nbeta        = 1

  ==> Algorithm <==

  SCF Algorithm Type is DF.
  DIIS enabled.
  MOM disabled.
  Fractional occupation disabled.
  Guess Type is GWH.
  Energy threshold   = 1.00e-08
  Density threshold  = 1.00e-08
  Integral threshold = 0.00e+00

  ==> Primary Basis <==

  Basis Set: CC-PVTZ
    Blend: CC-PVTZ
    Number of shells: 12
    Number of basis function: 28
    Number of Cartesian functions: 30
    Spherical Harmonics?: true
    Max angular momentum: 2

   => Loading Basis Set <=

    Name: (CC-PVTZ AUX)
    Role: JKFIT
    Keyword: DF_BASIS_SCF
    atoms 1-2 entry H          line    51 file /edfs/users/namvu/software/psi4/install/intel-release/share/psi4/basis/cc-pvtz-jkfit.gbs 

  ==> Pre-Iterations <==

   -------------------------------------------------------
    Irrep   Nso     Nmo     Nalpha   Nbeta   Ndocc  Nsocc
   -------------------------------------------------------
     Ag         7       7       0       0       0       0
     B1g        1       1       0       0       0       0
     B2g        3       3       0       0       0       0
     B3g        3       3       0       0       0       0
     Au         1       1       0       0       0       0
     B1u        7       7       0       0       0       0
     B2u        3       3       0       0       0       0
     B3u        3       3       0       0       0       0
   -------------------------------------------------------
    Total      28      28       1       1       1       0
   -------------------------------------------------------

  ==> Integral Setup <==

  ==> DFJK: Density-Fitted J/K Matrices <==

    J tasked:                  Yes
    K tasked:                  Yes
    wK tasked:                  No
    OpenMP threads:              6
    Integrals threads:           6
    Memory (MB):              2145
    Algorithm:                Core
    Integral Cache:           NONE
    Schwarz Cutoff:          1E-12
    Fitting Condition:       1E-12

   => Auxiliary Basis Set <=

  Basis Set: (CC-PVTZ AUX)
    Blend: CC-PVTZ-JKFIT
    Number of shells: 20
    Number of basis function: 60
    Number of Cartesian functions: 70
    Spherical Harmonics?: true
    Max angular momentum: 3

  Minimum eigenvalue in the overlap matrix is 8.0200486888E-02.
  Using Symmetric Orthogonalization.

  SCF Guess: Generalized Wolfsberg-Helmholtz.

  ==> Iterations <==

                           Total Energy        Delta E     RMS |[F,P]|

    Occupation by irrep:
             Ag   B1g   B2g   B3g    Au   B1u   B2u   B3u 
    DOCC [     1,    0,    0,    0,    0,    0,    0,    0 ]
    SOCC [     0,    0,    0,    0,    0,    0,    0,    0 ]

   @DF-ROHF iter   1:     3.83504515189526    3.83505e+00   2.40092e-01 
   @DF-ROHF iter   2:    -0.94004447579661   -4.77509e+00   6.22228e-03 DIIS
   @DF-ROHF iter   3:    -0.94563968177758   -5.59521e-03   1.33016e-03 DIIS
   @DF-ROHF iter   4:    -0.94590698724391   -2.67305e-04   5.85386e-05 DIIS
   @DF-ROHF iter   5:    -0.94590743993305   -4.52689e-07   4.30769e-06 DIIS
   @DF-ROHF iter   6:    -0.94590744203885   -2.10580e-09   2.93798e-07 DIIS
   @DF-ROHF iter   7:    -0.94590744204916   -1.03126e-11   3.32644e-09 DIIS

  ==> Post-Iterations <==

    Orbital Energies (a.u.)
    -----------------------

    Doubly Occupied:                                                      

       1Ag    -0.401196  

    Singly Occupied:                                                      

    

    Virtual:                                                              

       1B1u   -0.022029     2Ag     0.390718     2B1u    0.418998  
       1B3u    0.688359     1B2u    0.688359     3Ag     0.698308  
       1B2g    0.866552     1B3g    0.866552     3B1u    1.196624  
       4Ag     2.423078     4B1u    2.608255     5Ag     3.253108  
       2B3u    3.320532     2B2u    3.320532     6Ag     3.417307  
       1B1g    3.417307     5B1u    3.438764     1Au     3.438764  
       2B2g    3.526987     2B3g    3.526987     6B1u    3.680688  
       3B2u    3.821478     3B3u    3.821478     3B3g    3.937793  
       3B2g    3.937793     7Ag     3.976967     7B1u    4.485009  

    Final Occupation by Irrep:
             Ag   B1g   B2g   B3g    Au   B1u   B2u   B3u 
    DOCC [     1,    0,    0,    0,    0,    0,    0,    0 ]
    SOCC [     0,    0,    0,    0,    0,    0,    0,    0 ]

  Energy converged.

  @DF-ROHF Final Energy:    -0.94590744204916

   => Energetics <=

    Nuclear Repulsion Energy =              0.2857142857142857
    One-Electron Energy =                  -1.6608523578371766
    Two-Electron Energy =                   0.4292306300737290
    Total Energy =                         -0.9459074420491620



Properties will be evaluated at   0.000000,   0.000000,   0.000000 Bohr

Properties computed using the SCF density matrix

  Nuclear Dipole Moment: (a.u.)
     X:     0.0000      Y:     0.0000      Z:     0.0000

  Electronic Dipole Moment: (a.u.)
     X:     0.0000      Y:     0.0000      Z:     0.0000

  Dipole Moment: (a.u.)
     X:     0.0000      Y:     0.0000      Z:     0.0000     Total:     0.0000

  Dipole Moment: (Debye)
     X:     0.0000      Y:     0.0000      Z:     0.0000     Total:     0.0000


*** tstop() called on ed4 at Mon May  7 15:01:29 2018
Module time:
	user time   =       2.17 seconds =       0.04 minutes
	system time =       0.13 seconds =       0.00 minutes
	total time  =          1 seconds =       0.02 minutes
Total time:
	user time   =      19.25 seconds =       0.32 minutes
	system time =       1.08 seconds =       0.02 minutes
	total time  =          4 seconds =       0.07 minutes
 MINTS: Wrapper to libmints.
   by Justin Turney

   Calculation information:
      Number of threads:                 6
      Number of atoms:                   2
      Number of AO shells:              12
      Number of SO shells:               6
      Number of primitives:             16
      Number of atomic orbitals:        30
      Number of basis functions:        28

      Number of irreps:                  8
      Integral cutoff                 0.00e+00
      Number of functions per irrep: [   7    1    3    3    1    7    3    3 ]

 OEINTS: Overlap, kinetic, potential, dipole, and quadrupole integrals
         stored in file 35.

      Computing two-electron integrals...done
      Computed 10722 non-zero two-electron integrals.
        Stored in file 33.


         ---------------------------------------------------------
                          Configuration Interaction
                            (a 'D E T C I' module)

                 C. David Sherrill, Daniel G. A. Smith, and
                              Matt L. Leininger
         ---------------------------------------------------------

Warning: iopen=0,opentype!=closed. Making iopen=1

   ==> Parameters <==

    EX LEVEL       =        2      H0 BLOCKSIZE  =     1000
    VAL EX LEVEL   =        0      H0 GUESS SIZE =     1000
    H0COUPLINGSIZE =        0      H0 COUPLING   =       NO
    MAXITER        =       24      NUM PRINT     =       20
    NUM ROOTS      =        1      ICORE         =        1
    PRINT LVL      =        1      FCI           =      YES
    R CONV         = 1.00e-04      MIXED         =      YES
    E CONV         = 1.00e-06      MIXED4        =      YES
    R4S            =       NO      REPL OTF      =       NO
    DIAG METHOD    =      SEM      FOLLOW ROOT   =        0
    PRECONDITIONER = DAVIDSON      UPDATE        = DAVIDSON
    S              =   0.0000      Ms0           =      YES
    GUESS VECTOR   =  H0BLOCK      OPENTYPE      =  SINGLET
    COLLAPSE SIZE  =        1      HD AVG        = EVANGELISTI
    MAX NUM VECS   =       25      REF SYM       =     AUTO
    IOPEN        =      YES

    EX ALLOW       =  1  1 
    STATE AVERAGE  =  0(1.00) 

   ==> CI Orbital and Space information <==

   ------------------------------------------------------------------------------
               Space    Total    Ag   B1g   B2g   B3g    Au   B1u   B2u   B3u
   ------------------------------------------------------------------------------
                 Nso       28     7     1     3     3     1     7     3     3
                 Nmo       28     7     1     3     3     1     7     3     3
               Ndocc        1     1     0     0     0     0     0     0     0
               Nsocc        0     0     0     0     0     0     0     0     0
   ------------------------------------------------------------------------------
                                   CI Spaces
   ------------------------------------------------------------------------------
        Dropped DOCC        0     0     0     0     0     0     0     0     0
              Active       28     7     1     3     3     1     7     3     3
        Dropped UOCC        0     0     0     0     0     0     0     0     0
   ------------------------------------------------------------------------------

   ==> Setting up CI strings <==

    There are 28 alpha and 28 beta strings
    The CI space requires 136 (1.36E+02) determinants and 8 blocks

   ==> Transforming CI integrals <==

	Presorting SO-basis two-electron integrals.
	Sorting File: SO Ints (nn|nn) nbuckets = 1
	Transforming the one-electron integrals and constructing Fock matrices
	Starting first half-transformation.
	Sorting half-transformed integrals.
	First half integral transformation complete.
	Starting second half-transformation.
	Two-electron integral transformation complete.

   ==> Starting CI iterations <==

    H0 Block Eigenvalue =  -1.02172087

    Simultaneous Expansion Method (Block Davidson Method)
    Using 1 initial trial vectors

     Iter   Root       Total Energy       Delta E      C RMS

   @CI  0:     0     -1.021720869176   -1.3074E+00   1.3483E-01  
   @CI  1:     0     -1.029527010256   -7.8061E-03   3.2587E-02  
   @CI  2:     0     -1.029921307947   -3.9430E-04   8.6390E-03  
   @CI  3:     0     -1.029979088809   -5.7781E-05   3.0954E-03  
   @CI  4:     0     -1.029982390279   -3.3015E-06   5.3497E-04  
   @CI  5:     0     -1.029982512365   -1.2209E-07   1.1405E-04  
   @CI  6:     0     -1.029982515709   -3.3447E-09   1.2638E-05 c

   ==> Energetics <==

    SCF energy =           -0.945907442049162
    Total CI energy =      -1.029982515709360

   ==> FCI root 0 information <==

    FCI Root 0 energy =    -1.029982515709360

   The 20 most important determinants:

    *   1    0.907544  (    0,    0)  1AgX 
    *   2   -0.372941  (   15,   15)  1B1uX 
    *   3   -0.111110  (   15,   16)  1B1uA 2B1uB 
    *   4   -0.111110  (   16,   15)  1B1uB 2B1uA 
    *   5    0.051164  (    0,    1)  1AgA 2AgB 
    *   6    0.051164  (    1,    0)  1AgB 2AgA 
    *   7   -0.037642  (   16,   16)  2B1uX 
    *   8    0.035552  (    0,    2)  1AgA 3AgB 
    *   9    0.035552  (    2,    0)  1AgB 3AgA 
    *  10   -0.022078  (   22,   22)  1B2uX 
    *  11   -0.022078  (   25,   25)  1B3uX 
    *  12   -0.018874  (    2,    2)  3AgX 
    *  13   -0.017613  (    1,    1)  2AgX 
    *  14   -0.016241  (   15,   17)  1B1uA 3B1uB 
    *  15   -0.016241  (   17,   15)  1B1uB 3B1uA 
    *  16    0.013931  (    1,    2)  2AgA 3AgB 
    *  17    0.013931  (    2,    1)  2AgB 3AgA 
    *  18    0.011524  (    0,    3)  1AgA 4AgB 
    *  19    0.011524  (    3,    0)  1AgB 4AgA 
    *  20   -0.010801  (   15,   18)  1B1uA 4B1uB 

		 "A good bug is a dead bug" 

[...]
    SOCC [     0,    0,    0,    0,    0,    0,    0,    0 ]

  Energy converged.

  @DF-ROHF Final Energy:    -0.77633551283409

   => Energetics <=

    Nuclear Repulsion Energy =              0.1176470588235294
    One-Electron Energy =                  -1.2138380463987795
    Two-Electron Energy =                   0.3198554747411595
    Total Energy =                         -0.7763355128340905



Properties will be evaluated at   0.000000,   0.000000,   0.000000 Bohr

Properties computed using the SCF density matrix

  Nuclear Dipole Moment: (a.u.)
     X:     0.0000      Y:     0.0000      Z:     0.0000

  Electronic Dipole Moment: (a.u.)
     X:     0.0000      Y:     0.0000      Z:     0.0000

  Dipole Moment: (a.u.)
     X:     0.0000      Y:     0.0000      Z:     0.0000     Total:     0.0000

  Dipole Moment: (Debye)
     X:     0.0000      Y:     0.0000      Z:     0.0000     Total:     0.0000


*** tstop() called on ed4 at Mon May  7 15:01:35 2018
Module time:
	user time   =       2.12 seconds =       0.04 minutes
	system time =       0.15 seconds =       0.00 minutes
	total time  =          0 seconds =       0.00 minutes
Total time:
	user time   =      53.86 seconds =       0.90 minutes
	system time =       3.19 seconds =       0.05 minutes
	total time  =         10 seconds =       0.17 minutes
 MINTS: Wrapper to libmints.
   by Justin Turney

   Calculation information:
      Number of threads:                 6
      Number of atoms:                   2
      Number of AO shells:              12
      Number of SO shells:               6
      Number of primitives:             16
      Number of atomic orbitals:        30
      Number of basis functions:        28

      Number of irreps:                  8
      Integral cutoff                 0.00e+00
      Number of functions per irrep: [   7    1    3    3    1    7    3    3 ]

 OEINTS: Overlap, kinetic, potential, dipole, and quadrupole integrals
         stored in file 35.

      Computing two-electron integrals...done
      Computed 10729 non-zero two-electron integrals.
        Stored in file 33.


         ---------------------------------------------------------
                          Configuration Interaction
                            (a 'D E T C I' module)

                 C. David Sherrill, Daniel G. A. Smith, and
                              Matt L. Leininger
         ---------------------------------------------------------

Warning: iopen=0,opentype!=closed. Making iopen=1

   ==> Parameters <==

    EX LEVEL       =        2      H0 BLOCKSIZE  =     1000
    VAL EX LEVEL   =        0      H0 GUESS SIZE =     1000
    H0COUPLINGSIZE =        0      H0 COUPLING   =       NO
    MAXITER        =       24      NUM PRINT     =       20
    NUM ROOTS      =        1      ICORE         =        1
    PRINT LVL      =        1      FCI           =      YES
    R CONV         = 1.00e-04      MIXED         =      YES
    E CONV         = 1.00e-06      MIXED4        =      YES
    R4S            =       NO      REPL OTF      =       NO
    DIAG METHOD    =      SEM      FOLLOW ROOT   =        0
    PRECONDITIONER = DAVIDSON      UPDATE        = DAVIDSON
    S              =   0.0000      Ms0           =      YES
    GUESS VECTOR   =  H0BLOCK      OPENTYPE      =  SINGLET
    COLLAPSE SIZE  =        1      HD AVG        = EVANGELISTI
    MAX NUM VECS   =       25      REF SYM       =     AUTO
    IOPEN        =      YES

    EX ALLOW       =  1  1 
    STATE AVERAGE  =  0(1.00) 

   ==> CI Orbital and Space information <==

   ------------------------------------------------------------------------------
               Space    Total    Ag   B1g   B2g   B3g    Au   B1u   B2u   B3u
   ------------------------------------------------------------------------------
                 Nso       28     7     1     3     3     1     7     3     3
                 Nmo       28     7     1     3     3     1     7     3     3
               Ndocc        1     1     0     0     0     0     0     0     0
               Nsocc        0     0     0     0     0     0     0     0     0
   ------------------------------------------------------------------------------
                                   CI Spaces
   ------------------------------------------------------------------------------
        Dropped DOCC        0     0     0     0     0     0     0     0     0
              Active       28     7     1     3     3     1     7     3     3
        Dropped UOCC        0     0     0     0     0     0     0     0     0
   ------------------------------------------------------------------------------

   ==> Setting up CI strings <==

    There are 28 alpha and 28 beta strings
    The CI space requires 136 (1.36E+02) determinants and 8 blocks

   ==> Transforming CI integrals <==

	Presorting SO-basis two-electron integrals.
	Sorting File: SO Ints (nn|nn) nbuckets = 1
	Transforming the one-electron integrals and constructing Fock matrices
	Starting first half-transformation.
	Sorting half-transformed integrals.
	First half integral transformation complete.
	Starting second half-transformation.
	Two-electron integral transformation complete.

   ==> Starting CI iterations <==

    H0 Block Eigenvalue =  -0.99770597

    Simultaneous Expansion Method (Block Davidson Method)
    Using 1 initial trial vectors

     Iter   Root       Total Energy       Delta E      C RMS

   @CI  0:     0     -0.997705973672   -1.1154E+00   6.1884E-02  
   @CI  1:     0     -0.999577284349   -1.8713E-03   8.1591E-03  
   @CI  2:     0     -0.999629929355   -5.2645E-05   3.1208E-03  
   @CI  3:     0     -0.999634974213   -5.0449E-06   1.0502E-03  
   @CI  4:     0     -0.999635450624   -4.7641E-07   2.1322E-04  
   @CI  5:     0     -0.999635465467   -1.4842E-08   2.8097E-05 c

   ==> Energetics <==

    SCF energy =           -0.776335512834091
    Total CI energy =      -0.999635465466709

   ==> FCI root 0 information <==

    FCI Root 0 energy =    -0.999635465466709

   The 20 most important determinants:

    *   1    0.695574  (    0,    0)  1AgX 
    *   2   -0.687438  (   15,   15)  1B1uX 
    *   3    0.107618  (    0,    1)  1AgA 2AgB 
    *   4    0.107618  (    1,    0)  1AgB 2AgA 
    *   5   -0.098286  (   15,   16)  1B1uA 2B1uB 
    *   6   -0.098286  (   16,   15)  1B1uB 2B1uA 
    *   7    0.016616  (    1,    1)  2AgX 
    *   8   -0.014067  (   16,   16)  2B1uX 
    *   9    0.012309  (    0,    3)  1AgA 4AgB 
    *  10    0.012309  (    3,    0)  1AgB 4AgA 
    *  11   -0.011771  (   15,   18)  1B1uA 4B1uB 
    *  12   -0.011771  (   18,   15)  1B1uB 4B1uA 
    *  13   -0.003788  (    0,    2)  1AgA 3AgB 
    *  14   -0.003788  (    2,    0)  1AgB 3AgA 
    *  15    0.003230  (   15,   17)  1B1uA 3B1uB 
    *  16    0.003230  (   17,   15)  1B1uB 3B1uA 
    *  17    0.001891  (    1,    3)  2AgA 4AgB 
    *  18    0.001891  (    3,    1)  2AgB 4AgA 
    *  19   -0.001702  (   16,   18)  2B1uA 4B1uB 
    *  20   -0.001702  (   18,   16)  2B1uB 4B1uA 

		 "A good bug is a dead bug" 

			 - Starship Troopers

		 "I didn't write FORTRAN.  That's the problem."

			 - Edward Valeev
Molecule: Setting geometry variable R to 9.000000

*** tstart() called on ed4
*** at Mon May  7 15:01:36 2018

   => Loading Basis Set <=

    Name: CC-PVTZ
    Role: ORBITAL
    Keyword: BASIS
    atoms 1-2 entry H          line    23 file /edfs/users/namvu/software/psi4/install/intel-release/share/psi4/basis/cc-pvtz.gbs 


         ---------------------------------------------------------
                                   SCF
            by Justin Turney, Rob Parrish, Andy Simmonett
                             and Daniel Smith
                             ROHF Reference
                        6 Threads,   2861 MiB Core
         ---------------------------------------------------------

  ==> Geometry <==

    Molecular point group: d2h
    Full point group: D_inf_h

    Geometry (in Bohr), charge = 0, multiplicity = 1:

       Center              X                  Y                   Z               Mass       
    ------------   -----------------  -----------------  -----------------  -----------------
           H          0.000000000000     0.000000000000    -4.500000000000     1.007825032070
           H          0.000000000000     0.000000000000     4.500000000000     1.007825032070

  Running in d2h symmetry.

  Rotational constants: A = ************  B =      1.47487  C =      1.47487 [cm^-1]
  Rotational constants: A = ************  B =  44215.52333  C =  44215.52333 [MHz]
  Nuclear repulsion =    0.111111111111111

  Charge       = 0
  Multiplicity = 1
  Electrons    = 2
  Nalpha       = 1
  Nbeta        = 1

  ==> Algorithm <==

  SCF Algorithm Type is DF.
  DIIS enabled.
  MOM disabled.
  Fractional occupation disabled.
  Guess Type is GWH.
  Energy threshold   = 1.00e-08
  Density threshold  = 1.00e-08
  Integral threshold = 0.00e+00

  ==> Primary Basis <==

  Basis Set: CC-PVTZ
    Blend: CC-PVTZ
    Number of shells: 12
    Number of basis function: 28
    Number of Cartesian functions: 30
    Spherical Harmonics?: true
    Max angular momentum: 2

   => Loading Basis Set <=

    Name: (CC-PVTZ AUX)
    Role: JKFIT
    Keyword: DF_BASIS_SCF
    atoms 1-2 entry H          line    51 file /edfs/users/namvu/software/psi4/install/intel-release/share/psi4/basis/cc-pvtz-jkfit.gbs 

  ==> Pre-Iterations <==

   -------------------------------------------------------
    Irrep   Nso     Nmo     Nalpha   Nbeta   Ndocc  Nsocc
   -------------------------------------------------------
     Ag         7       7       0       0       0       0
     B1g        1       1       0       0       0       0
     B2g        3       3       0       0       0       0
     B3g        3       3       0       0       0       0
     Au         1       1       0       0       0       0
     B1u        7       7       0       0       0       0
     B2u        3       3       0       0       0       0
     B3u        3       3       0       0       0       0
   -------------------------------------------------------
    Total      28      28       1       1       1       0
   -------------------------------------------------------

  ==> Integral Setup <==

  ==> DFJK: Density-Fitted J/K Matrices <==

    J tasked:                  Yes
    K tasked:                  Yes
    wK tasked:                  No
    OpenMP threads:              6
    Integrals threads:           6
    Memory (MB):              2145
    Algorithm:                Core
    Integral Cache:           NONE
    Schwarz Cutoff:          1E-12
    Fitting Condition:       1E-12

   => Auxiliary Basis Set <=

  Basis Set: (CC-PVTZ AUX)
    Blend: CC-PVTZ-JKFIT
    Number of shells: 20
    Number of basis function: 60
    Number of Cartesian functions: 70
    Spherical Harmonics?: true
    Max angular momentum: 3

  Minimum eigenvalue in the overlap matrix is 1.0615433415E-01.
  Using Symmetric Orthogonalization.

  SCF Guess: Generalized Wolfsberg-Helmholtz.

  ==> Iterations <==

                           Total Energy        Delta E     RMS |[F,P]|

   @DF-ROHF iter   1:     2.54282326043726    2.54282e+00   1.50870e-01 
   @DF-ROHF iter   2:    -0.76703658319559   -3.30986e+00   4.79166e-03 DIIS
   @DF-ROHF iter   3:    -0.77132567360493   -4.28909e-03   7.95176e-04 DIIS
   @DF-ROHF iter   4:    -0.77145846187875   -1.32788e-04   4.52025e-05 DIIS
   @DF-ROHF iter   5:    -0.77145867648447   -2.14606e-07   2.24741e-07 DIIS
   @DF-ROHF iter   6:    -0.77145867648851   -4.03677e-12   5.59442e-09 DIIS

  ==> Post-Iterations <==

    Orbital Energies (a.u.)
    -----------------------

    Doubly Occupied:                                                      

       1Ag    -0.282627  

    Singly Occupied:                                                      

    

    Virtual:                                                              

       1B1u   -0.167896     2Ag     0.372360     2B1u    0.404309  
       3Ag     0.753012     1B3u    0.753474     1B2u    0.753474  
       1B2g    0.754620     1B3g    0.754620     3B1u    0.755596  
       4Ag     2.456718     4B1u    2.487237     5Ag     3.402937  
       1B1g    3.402937     5B1u    3.402943     1Au     3.402943  
       2B2u    3.403045     2B3u    3.403045     2B2g    3.403073  
       2B3g    3.403073     6Ag     3.403079     6B1u    3.403122  
       3B2u    3.820531     3B3u    3.820531     3B3g    3.820551  
       3B2g    3.820551     7Ag     3.820603     7B1u    3.820685  

    Final Occupation by Irrep:
             Ag   B1g   B2g   B3g    Au   B1u   B2u   B3u 
    DOCC [     1,    0,    0,    0,    0,    0,    0,    0 ]
    SOCC [     0,    0,    0,    0,    0,    0,    0,    0 ]

  Energy converged.

  @DF-ROHF Final Energy:    -0.77145867648851

   => Energetics <=

    Nuclear Repulsion Energy =              0.1111111111111111
    One-Electron Energy =                  -1.1998851590585611
    Two-Electron Energy =                   0.3173153714589401
    Total Energy =                         -0.7714586764885099



Properties will be evaluated at   0.000000,   0.000000,   0.000000 Bohr

Properties computed using the SCF density matrix

  Nuclear Dipole Moment: (a.u.)
     X:     0.0000      Y:     0.0000      Z:     0.0000

  Electronic Dipole Moment: (a.u.)
     X:     0.0000      Y:     0.0000      Z:     0.0000

  Dipole Moment: (a.u.)
     X:     0.0000      Y:     0.0000      Z:     0.0000     Total:     0.0000

  Dipole Moment: (Debye)
     X:     0.0000      Y:     0.0000      Z:     0.0000     Total:     0.0000


*** tstop() called on ed4 at Mon May  7 15:01:36 2018
Module time:
	user time   =       2.13 seconds =       0.04 minutes
	system time =       0.16 seconds =       0.00 minutes
	total time  =          0 seconds =       0.00 minutes
Total time:
	user time   =      57.28 seconds =       0.95 minutes
	system time =       3.45 seconds =       0.06 minutes
	total time  =         11 seconds =       0.18 minutes
 MINTS: Wrapper to libmints.
   by Justin Turney

   Calculation information:
      Number of threads:                 6
      Number of atoms:                   2
      Number of AO shells:              12
      Number of SO shells:               6
      Number of primitives:             16
      Number of atomic orbitals:        30
      Number of basis functions:        28

      Number of irreps:                  8
      Integral cutoff                 0.00e+00
      Number of functions per irrep: [   7    1    3    3    1    7    3    3 ]

 OEINTS: Overlap, kinetic, potential, dipole, and quadrupole integrals
         stored in file 35.

      Computing two-electron integrals...done
      Computed 10777 non-zero two-electron integrals.
        Stored in file 33.


         ---------------------------------------------------------
                          Configuration Interaction
                            (a 'D E T C I' module)

                 C. David Sherrill, Daniel G. A. Smith, and
                              Matt L. Leininger
         ---------------------------------------------------------

Warning: iopen=0,opentype!=closed. Making iopen=1

   ==> Parameters <==

    EX LEVEL       =        2      H0 BLOCKSIZE  =     1000
    VAL EX LEVEL   =        0      H0 GUESS SIZE =     1000
    H0COUPLINGSIZE =        0      H0 COUPLING   =       NO
    MAXITER        =       24      NUM PRINT     =       20
    NUM ROOTS      =        1      ICORE         =        1
    PRINT LVL      =        1      FCI           =      YES
    R CONV         = 1.00e-04      MIXED         =      YES
    E CONV         = 1.00e-06      MIXED4        =      YES
    R4S            =       NO      REPL OTF      =       NO
    DIAG METHOD    =      SEM      FOLLOW ROOT   =        0
    PRECONDITIONER = DAVIDSON      UPDATE        = DAVIDSON
    S              =   0.0000      Ms0           =      YES
    GUESS VECTOR   =  H0BLOCK      OPENTYPE      =  SINGLET
    COLLAPSE SIZE  =        1      HD AVG        = EVANGELISTI
    MAX NUM VECS   =       25      REF SYM       =     AUTO
    IOPEN        =      YES

    EX ALLOW       =  1  1 
    STATE AVERAGE  =  0(1.00) 

   ==> CI Orbital and Space information <==

   ------------------------------------------------------------------------------
               Space    Total    Ag   B1g   B2g   B3g    Au   B1u   B2u   B3u
   ------------------------------------------------------------------------------
                 Nso       28     7     1     3     3     1     7     3     3
                 Nmo       28     7     1     3     3     1     7     3     3
               Ndocc        1     1     0     0     0     0     0     0     0
               Nsocc        0     0     0     0     0     0     0     0     0
   ------------------------------------------------------------------------------
                                   CI Spaces
   ------------------------------------------------------------------------------
        Dropped DOCC        0     0     0     0     0     0     0     0     0
              Active       28     7     1     3     3     1     7     3     3
        Dropped UOCC        0     0     0     0     0     0     0     0     0
   ------------------------------------------------------------------------------

   ==> Setting up CI strings <==

    There are 28 alpha and 28 beta strings
    The CI space requires 136 (1.36E+02) determinants and 8 blocks

   ==> Transforming CI integrals <==

	Presorting SO-basis two-electron integrals.
	Sorting File: SO Ints (nn|nn) nbuckets = 1
	Transforming the one-electron integrals and constructing Fock matrices
	Starting first half-transformation.
	Sorting half-transformed integrals.
	First half integral transformation complete.
	Starting second half-transformation.
	Two-electron integral transformation complete.

   ==> Starting CI iterations <==

    H0 Block Eigenvalue =  -0.99768718

    Simultaneous Expansion Method (Block Davidson Method)
    Using 1 initial trial vectors

     Iter   Root       Total Energy       Delta E      C RMS

   @CI  0:     0     -0.997687184083   -1.1088E+00   6.2143E-02  
   @CI  1:     0     -0.999570550030   -1.8834E-03   8.0831E-03  
   @CI  2:     0     -0.999623273997   -5.2724E-05   3.0716E-03  
   @CI  3:     0     -0.999628126734   -4.8527E-06   1.0102E-03  
   @CI  4:     0     -0.999628578486   -4.5175E-07   2.1116E-04  
   @CI  5:     0     -0.999628592718   -1.4232E-08   2.7313E-05 c

   ==> Energetics <==

    SCF energy =           -0.771458676488510
    Total CI energy =      -0.999628592717745

   ==> FCI root 0 information <==

    FCI Root 0 energy =    -0.999628592717745

   The 20 most important determinants:

    *   1    0.694089  (    0,    0)  1AgX 
    *   2   -0.689077  (   15,   15)  1B1uX 
    *   3    0.106268  (    0,    1)  1AgA 2AgB 
    *   4    0.106268  (    1,    0)  1AgB 2AgA 
    *   5   -0.099257  (   15,   16)  1B1uA 2B1uB 
    *   6   -0.099257  (   16,   15)  1B1uB 2B1uA 
    *   7    0.016258  (    1,    1)  2AgX 
    *   8   -0.014307  (   16,   16)  2B1uX 
    *   9    0.012333  (    0,    3)  1AgA 4AgB 
    *  10    0.012333  (    3,    0)  1AgB 4AgA 
    *  11   -0.011919  (   15,   18)  1B1uA 4B1uB 
    *  12   -0.011919  (   18,   15)  1B1uB 4B1uA 
    *  13   -0.003761  (    0,    2)  1AgA 3AgB 
    *  14   -0.003761  (    2,    0)  1AgB 3AgA 
    *  15    0.003286  (   15,   17)  1B1uA 3B1uB 
    *  16    0.003286  (   17,   15)  1B1uB 3B1uA 
    *  17    0.001881  (    1,    3)  2AgA 4AgB 
    *  18    0.001881  (    3,    1)  2AgB 4AgA 
    *  19   -0.001729  (   16,   18)  2B1uA 4B1uB 
    *  20   -0.001729  (   18,   16)  2B1uB 4B1uA 

		 "A good bug is a dead bug" 

			 - Starship Troopers

		 "I didn't write FORTRAN.  That's the problem."

			 - Edward Valeev

*** Psi4 exiting successfully. Buy a developer a beer!
