
    -----------------------------------------------------------------------
          Psi4: An Open-Source Ab Initio Electronic Structure Package
                               Psi4 1.2rc3.dev4 

                         Git: Rev {psi4_N} 0e159c1 dirty


    R. M. Parrish, L. A. Burns, D. G. A. Smith, A. C. Simmonett,
    A. E. DePrince III, E. G. Hohenstein, U. Bozkaya, A. Yu. Sokolov,
    R. Di Remigio, R. M. Richard, J. F. Gonthier, A. M. James,
    H. R. McAlexander, A. Kumar, M. Saitow, X. Wang, B. P. Pritchard,
    P. Verma, H. F. Schaefer III, K. Patkowski, R. A. King, E. F. Valeev,
    F. A. Evangelista, J. M. Turney, T. D. Crawford, and C. D. Sherrill,
    J. Chem. Theory Comput. 13(7) pp 3185--3197 (2017).
    (doi: 10.1021/acs.jctc.7b00174)

    -----------------------------------------------------------------------


    Psi4 started on: Tuesday, 04 December 2018 11:58AM

    Process ID: 5915
    Host:       ed4
    PSIDATADIR: /edfs/users/namvu/software/psi4_May_18/intel-release/share/psi4
    Memory:     500.0 MiB
    Threads:    1
    
  ==> Input File <==

--------------------------------------------------------------------------
# PYTHONPATH must include directory above plugin directory.
#     Define either externally or here, then import plugin.
sys.path.insert(0, '/edfs/users/namvu/chem')
import v2rdm_casscf
sys.path.insert(0, '/edfs/users/namvu/software')
import v2rdm_doci
sys.path.insert(0, '/edfs/users/namvu/chem/deprince-group/plugins/')
import erpa

memory 8000 mb

molecule h2o {
 o
 h 1 R
 h 1 R 2 104.5
symmetry c1
}

Rvals=[3.0]

set {
  guess sad
  basis sto-3g
  scf_type df
  d_convergence 1e-8
 # e_convergence 1e8
  reference rhf
  maxiter 500
  die_if_not_converged false
}
set v2rdm_doci {
  positivity dqgt2
  tpdm_write_full true
  r_convergence  1e-6
  e_convergence  1e-5
  maxiter 1000000
 # orbopt_one_step true
#  orbopt_frequency 100
#  orbopt_maxiter 2
}
set v2rdm_casscf {
 nat_orbs true
# tpdm_guess hf
# constrain_spin true
# cg_convergence 1e-6
}
# optimize_orbitals true
# orbopt_active_active_rotations false
# semicanonicalize_orbitals false
# mu_update_frequency 500
# restricted_docc  [ 0, 0, 0, 0, 0, 0, 0, 0 ]
# active           [ 2, 0, 0, 0, 0, 2, 0, 0 ]
# molden_write true

set erpa {
 pruning_threshold 1e-6
 spin_adapt_erpa true
 adiabatic_connection true
 ac_doci true
}
for R in Rvals:
   h2o.R = R
   en, wfn = energy('v2rdm-doci',return_wfn=True)
   energy('erpa',ref_wfn=wfn)

--------------------------------------------------------------------------

  Memory set to   7.451 GiB by Python driver.
Molecule: geometry: Molecule is not complete, please use 'update_geometry'
                    once all variables are set.
Molecule: Setting geometry variable R to 3.000000

*** tstart() called on ed4
*** at Tue Dec  4 11:58:57 2018

   => Loading Basis Set <=

    Name: STO-3G
    Role: ORBITAL
    Keyword: BASIS
    atoms 1   entry O          line    81 file /edfs/users/namvu/software/psi4_May_18/intel-release/share/psi4/basis/sto-3g.gbs 
    atoms 2-3 entry H          line    19 file /edfs/users/namvu/software/psi4_May_18/intel-release/share/psi4/basis/sto-3g.gbs 

    There are an even number of electrons - assuming singlet.
    Specify the multiplicity in the molecule input block.


         ---------------------------------------------------------
                                   SCF
            by Justin Turney, Rob Parrish, Andy Simmonett
                             and Daniel Smith
                              RHF Reference
                        1 Threads,   7629 MiB Core
         ---------------------------------------------------------

  ==> Geometry <==

    Molecular point group: c1
    Full point group: C2v

    Geometry (in Angstrom), charge = 0, multiplicity = 1:

       Center              X                  Y                   Z               Mass       
    ------------   -----------------  -----------------  -----------------  -----------------
         O            0.000000000000     0.000000000000    -0.205548657931    15.994914619560
         H            0.000000000000    -2.372068721232     1.631103182173     1.007825032070
         H            0.000000000000     2.372068721232     1.631103182173     1.007825032070

  Running in c1 symmetry.

  Rotational constants: A =      2.79173  B =      1.48637  C =      0.96995 [cm^-1]
  Rotational constants: A =  83693.89621  B =  44560.24045  C =  29078.36142 [MHz]
  Nuclear repulsion =    2.933821843324023

  Charge       = 0
  Multiplicity = 1
  Electrons    = 10
  Nalpha       = 5
  Nbeta        = 5

  ==> Algorithm <==

  SCF Algorithm Type is DF.
  DIIS enabled.
  MOM disabled.
  Fractional occupation disabled.
  Guess Type is SAD.
  Energy threshold   = 1.00e-08
  Density threshold  = 1.00e-08
  Integral threshold = 0.00e+00

  ==> Primary Basis <==

  Basis Set: STO-3G
    Blend: STO-3G
    Number of shells: 5
    Number of basis function: 7
    Number of Cartesian functions: 7
    Spherical Harmonics?: true
    Max angular momentum: 1

   => Loading Basis Set <=

    Name: (STO-3G AUX)
    Role: JKFIT
    Keyword: DF_BASIS_SCF
    atoms 1   entry O          line   323 file /edfs/users/namvu/software/psi4_May_18/intel-release/share/psi4/basis/def2-svp-jkfit.gbs 
    atoms 2-3 entry H          line    23 file /edfs/users/namvu/software/psi4_May_18/intel-release/share/psi4/basis/def2-svp-jkfit.gbs 

  ==> Pre-Iterations <==

   -------------------------------------------------------
    Irrep   Nso     Nmo     Nalpha   Nbeta   Ndocc  Nsocc
   -------------------------------------------------------
     A          7       7       0       0       0       0
   -------------------------------------------------------
    Total       7       7       5       5       5       0
   -------------------------------------------------------

  ==> Integral Setup <==

  ==> DiskDFJK: Density-Fitted J/K Matrices <==

    J tasked:                  Yes
    K tasked:                  Yes
    wK tasked:                  No
    OpenMP threads:              1
    Integrals threads:           1
    Memory (MB):              5722
    Algorithm:                Core
    Integral Cache:           SAVE
    Schwarz Cutoff:          1E-12
    Fitting Condition:       1E-12

   => Auxiliary Basis Set <=

  Basis Set: (STO-3G AUX)
    Blend: DEF2-SVP-JKFIT
    Number of shells: 37
    Number of basis function: 113
    Number of Cartesian functions: 133
    Spherical Harmonics?: true
    Max angular momentum: 4

  Minimum eigenvalue in the overlap matrix is 7.6308017304E-01.
  Using Symmetric Orthogonalization.

  SCF Guess: Superposition of Atomic Densities via on-the-fly atomic UHF.

  ==> Iterations <==

                           Total Energy        Delta E     RMS |[F,P]|

   @DF-RHF iter   0:   -73.88663126796806   -7.38866e+01   1.65826e-03 
   @DF-RHF iter   1:   -73.69499024126858    1.91641e-01   7.87213e-02 
   @DF-RHF iter   2:   -72.94192054201224    7.53070e-01   3.88018e-02 DIIS
   @DF-RHF iter   3:   -72.95435524357067   -1.24347e-02   3.35960e-02 DIIS
   @DF-RHF iter   4:   -72.91007791482308    4.42773e-02   2.82151e-02 DIIS
   @DF-RHF iter   5:   -72.92918314752329   -1.91052e-02   2.38091e-02 DIIS
   @DF-RHF iter   6:   -72.88824456579448    4.09386e-02   1.70886e-02 DIIS
   @DF-RHF iter   7:   -72.87686164170172    1.13829e-02   5.65745e-03 DIIS
   @DF-RHF iter   8:   -72.90590237139672   -2.90407e-02   5.04145e-03 DIIS
   @DF-RHF iter   9:   -72.91652567687836   -1.06233e-02   3.07339e-02 DIIS
   @DF-RHF iter  10:   -72.87188722647569    4.46385e-02   1.56616e-02 DIIS
   @DF-RHF iter  11:   -72.90621036579873   -3.43231e-02   5.88881e-03 DIIS
   @DF-RHF iter  12:   -72.90962046305849   -3.41010e-03   1.06486e-02 DIIS
   @DF-RHF iter  13:   -72.91400499127792   -4.38453e-03   1.47175e-02 DIIS
   @DF-RHF iter  14:   -72.90809129143628    5.91370e-03   8.85351e-03 DIIS
   @DF-RHF iter  15:   -72.87014054697852    3.79507e-02   1.66925e-02 DIIS
   @DF-RHF iter  16:   -72.90697806682853   -3.68375e-02   7.16527e-03 DIIS
   @DF-RHF iter  17:   -72.87859133140716    2.83867e-02   8.46370e-03 DIIS
   @DF-RHF iter  18:   -72.94567923911036   -6.70879e-02   3.97788e-02 DIIS
   @DF-RHF iter  19:   -72.87127513697823    7.44041e-02   1.84953e-02 DIIS
   @DF-RHF iter  20:   -72.98349425444391   -1.12219e-01   4.84517e-02 DIIS
   @DF-RHF iter  21:   -72.87488118669890    1.08613e-01   1.79407e-02 DIIS
   @DF-RHF iter  22:   -72.90811065673428   -3.32295e-02   8.82111e-03 DIIS
   @DF-RHF iter  23:   -72.87898019204655    2.91305e-02   9.03320e-03 DIIS
   @DF-RHF iter  24:   -72.91294422273519   -3.39640e-02   1.38441e-02 DIIS
   @DF-RHF iter  25:   -72.93142443951994   -1.84802e-02   2.48690e-02 DIIS
   @DF-RHF iter  26:   -74.26323871485347   -1.33181e+00   2.26236e-03 DIIS
   @DF-RHF iter  27:   -72.91517924108092    1.34806e+00   1.56555e-02 DIIS
   @DF-RHF iter  28:   -74.25762951510308   -1.34245e+00   6.30031e-03 DIIS
   @DF-RHF iter  29:   -72.91402399736468    1.34361e+00   1.47683e-02 DIIS
   @DF-RHF iter  30:   -72.91577580222078   -1.75180e-03   1.61079e-02 DIIS
   @DF-RHF iter  31:   -72.91750596259402   -1.73016e-03   1.73054e-02 DIIS
   @DF-RHF iter  32:   -72.91684069433914    6.65268e-04   1.68561e-02 DIIS
   @DF-RHF iter  33:   -72.91726174609903   -4.21052e-04   1.71422e-02 DIIS
   @DF-RHF iter  34:   -72.91706086804651    2.00878e-04   1.70064e-02 DIIS
   @DF-RHF iter  35:   -72.91717062978495   -1.09762e-04   1.70808e-02 DIIS
   @DF-RHF iter  36:   -72.91711467658929    5.59532e-05   1.70429e-02 DIIS
   @DF-RHF iter  37:   -72.91714421725834   -2.95407e-05   1.70629e-02 DIIS
   @DF-RHF iter  38:   -72.91712889914889    1.53181e-05   1.70526e-02 DIIS
   @DF-RHF iter  39:   -72.91713691600080   -8.01685e-06   1.70580e-02 DIIS
   @DF-RHF iter  40:   -72.91713274037592    4.17562e-06   1.70552e-02 DIIS
   @DF-RHF iter  41:   -72.91713492058450   -2.18021e-06   1.70566e-02 DIIS
   @DF-RHF iter  42:   -72.91713378364005    1.13694e-06   1.70559e-02 DIIS
   @DF-RHF iter  43:   -72.91713437683717   -5.93197e-07   1.70563e-02 DIIS
   @DF-RHF iter  44:   -72.91713406745619    3.09381e-07   1.70561e-02 DIIS
   @DF-RHF iter  45:   -72.91713422896643   -1.61510e-07   1.70562e-02 DIIS
   @DF-RHF iter  46:   -72.91713414451252    8.44539e-08   1.70561e-02 DIIS
   @DF-RHF iter  47:   -72.91713418881591   -4.43034e-08   1.70561e-02 DIIS
   @DF-RHF iter  48:   -72.91713416560737    2.32085e-08   1.70561e-02 DIIS
   @DF-RHF iter  49:   -72.91713417769746   -1.20901e-08   1.70561e-02 DIIS
   @DF-RHF iter  50:   -72.91713417129917    6.39830e-09   1.70561e-02 DIIS
   @DF-RHF iter  51:   -72.91713417473444   -3.43528e-09   1.70561e-02 DIIS
   @DF-RHF iter  52:   -72.91713417296270    1.77174e-09   1.70561e-02 DIIS
   @DF-RHF iter  53:   -72.91713417399535   -1.03265e-09   1.70561e-02 DIIS
   @DF-RHF iter  54:   -72.91713417314463    8.50719e-10   1.70561e-02 DIIS
   @DF-RHF iter  55:   -72.91713417382422   -6.79591e-10   1.70561e-02 DIIS
   @DF-RHF iter  56:   -72.91713417348629    3.37934e-10   1.70561e-02 DIIS
   @DF-RHF iter  57:   -72.91713417352503   -3.87388e-11   1.70561e-02 DIIS
   @DF-RHF iter  58:   -72.91713417362469   -9.96607e-11   1.70561e-02 DIIS
   @DF-RHF iter  59:   -72.91713417349830    1.26391e-10   1.70561e-02 DIIS
   @DF-RHF iter  60:   -72.91713417356249   -6.41904e-11   1.70561e-02 DIIS
   @DF-RHF iter  61:   -72.91713417352206    4.04299e-11   1.70561e-02 DIIS
   @DF-RHF iter  62:   -72.91713417362509   -1.03029e-10   1.70561e-02 DIIS
   @DF-RHF iter  63:   -72.91713417340959    2.15493e-10   1.70561e-02 DIIS
   @DF-RHF iter  64:   -72.91713417365277   -2.43176e-10   1.70561e-02 DIIS
   @DF-RHF iter  65:   -72.91713417352604    1.26732e-10   1.70561e-02 DIIS
   @DF-RHF iter  66:   -72.91713417365902   -1.32985e-10   1.70561e-02 DIIS
   @DF-RHF iter  67:   -72.91713417346359    1.95428e-10   1.70561e-02 DIIS
   @DF-RHF iter  68:   -72.91713417369266   -2.29065e-10   1.70561e-02 DIIS
   @DF-RHF iter  69:   -72.91713417340844    2.84217e-10   1.70561e-02 DIIS
   @DF-RHF iter  70:   -72.91713417371538   -3.06940e-10   1.70561e-02 DIIS
   @DF-RHF iter  71:   -72.91713417351944    1.95939e-10   1.70561e-02 DIIS
   @DF-RHF iter  72:   -72.91713417349021    2.92317e-11   1.70561e-02 DIIS
   @DF-RHF iter  73:   -72.91713417364429   -1.54074e-10   1.70561e-02 DIIS
   @DF-RHF iter  74:   -72.91713417348534    1.58948e-10   1.70561e-02 DIIS
   @DF-RHF iter  75:   -72.91713417352510   -3.97620e-11   1.70561e-02 DIIS
   @DF-RHF iter  76:   -72.91713417353671   -1.16103e-11   1.70561e-02 DIIS
   @DF-RHF iter  77:   -72.91713417363505   -9.83391e-11   1.70561e-02 DIIS
   @DF-RHF iter  78:   -72.91713417347881    1.56234e-10   1.70561e-02 DIIS
   @DF-RHF iter  79:   -72.91713417355490   -7.60849e-11   1.70561e-02 DIIS
   @DF-RHF iter  80:   -72.91713417365766   -1.02759e-10   1.70561e-02 DIIS
   @DF-RHF iter  81:   -72.91713417355257    1.05089e-10   1.70561e-02 DIIS
   @DF-RHF iter  82:   -72.91713417349999    5.25802e-11   1.70561e-02 DIIS
   @DF-RHF iter  83:   -72.91713417349618    3.80851e-12   1.70561e-02 DIIS
   @DF-RHF iter  84:   -72.91713417363491   -1.38726e-10   1.70561e-02 DIIS
   @DF-RHF iter  85:   -72.91713417357383    6.10783e-11   1.70561e-02 DIIS
   @DF-RHF iter  86:   -72.91713417353346    4.03730e-11   1.70561e-02 DIIS
   @DF-RHF iter  87:   -72.91713417358139   -4.79332e-11   1.70561e-02 DIIS
   @DF-RHF iter  88:   -72.91713417352364    5.77529e-11   1.70561e-02 DIIS
   @DF-RHF iter  89:   -72.91713417351711    6.52278e-12   1.70561e-02 DIIS
   @DF-RHF iter  90:   -72.91713417361892   -1.01807e-10   1.70561e-02 DIIS
   @DF-RHF iter  91:   -72.91713417349089    1.28026e-10   1.70561e-02 DIIS
   @DF-RHF iter  92:   -72.91713417350358   -1.26903e-11   1.70561e-02 DIIS
   @DF-RHF iter  93:   -72.91713417367282   -1.69237e-10   1.70561e-02 DIIS
   @DF-RHF iter  94:   -72.91713417341343    2.59391e-10   1.70561e-02 DIIS
   @DF-RHF iter  95:   -72.91713417361348   -2.00046e-10   1.70561e-02 DIIS
   @DF-RHF iter  96:   -72.91713417352194    9.15321e-11   1.70561e-02 DIIS
   @DF-RHF iter  97:   -72.91713417362206   -1.00115e-10   1.70561e-02 DIIS
   @DF-RHF iter  98:   -72.91713417343813    1.83931e-10   1.70561e-02 DIIS
   @DF-RHF iter  99:   -72.91713417368211   -2.43986e-10   1.70561e-02 DIIS
   @DF-RHF iter 100:   -72.91713417346647    2.15650e-10   1.70561e-02 DIIS
   @DF-RHF iter 101:   -72.91713417359682   -1.30356e-10   1.70561e-02 DIIS
   @DF-RHF iter 102:   -72.91713417366302   -6.61942e-11   1.70561e-02 DIIS
   @DF-RHF iter 103:   -72.91713417352153    1.41483e-10   1.70561e-02 DIIS
   @DF-RHF iter 104:   -72.91713417350651    1.50209e-11   1.70561e-02 DIIS
   @DF-RHF iter 105:   -72.91713417352386   -1.73515e-11   1.70561e-02 DIIS
   @DF-RHF iter 106:   -72.91713417359735   -7.34843e-11   1.70561e-02 DIIS
   @DF-RHF iter 107:   -72.91713417346713    1.30214e-10   1.70561e-02 DIIS
   @DF-RHF iter 108:   -72.91713417367609   -2.08956e-10   1.70561e-02 DIIS
   @DF-RHF iter 109:   -72.91713417345237    2.23721e-10   1.70561e-02 DIIS
   @DF-RHF iter 110:   -72.91713417364808   -1.95712e-10   1.70561e-02 DIIS
   @DF-RHF iter 111:   -72.91713417353671    1.11370e-10   1.70561e-02 DIIS
   @DF-RHF iter 112:   -72.91713417363171   -9.49996e-11   1.70561e-02 DIIS
   @DF-RHF iter 113:   -72.91713417342713    2.04579e-10   1.70561e-02 DIIS
   @DF-RHF iter 114:   -72.91713417368355   -2.56421e-10   1.70561e-02 DIIS
   @DF-RHF iter 115:   -72.91713417352143    1.62117e-10   1.70561e-02 DIIS
   @DF-RHF iter 116:   -72.91713417344663    7.48059e-11   1.70561e-02 DIIS
   @DF-RHF iter 117:   -72.91713417364392   -1.97289e-10   1.70561e-02 DIIS
   @DF-RHF iter 118:   -72.91713417343563    2.08288e-10   1.70561e-02 DIIS
   @DF-RHF iter 119:   -72.91713417369378   -2.58154e-10   1.70561e-02 DIIS
   @DF-RHF iter 120:   -72.91713417345952    2.34266e-10   1.70561e-02 DIIS
   @DF-RHF iter 121:   -72.91713417362632   -1.66807e-10   1.70561e-02 DIIS
   @DF-RHF iter 122:   -72.91713417359669    2.96296e-11   1.70561e-02 DIIS
   @DF-RHF iter 123:   -72.91713417346959    1.27102e-10   1.70561e-02 DIIS
   @DF-RHF iter 124:   -72.91713417357329   -1.03697e-10   1.70561e-02 DIIS
   @DF-RHF iter 125:   -72.91713417357160    1.69109e-12   1.70561e-02 DIIS
   @DF-RHF iter 126:   -72.91713417352764    4.39542e-11   1.70561e-02 DIIS
   @DF-RHF iter 127:   -72.91713417349429    3.33529e-11   1.70561e-02 DIIS
   @DF-RHF iter 128:   -72.91713417366350   -1.69209e-10   1.70561e-02 DIIS
   @DF-RHF iter 129:   -72.91713417353759    1.25908e-10   1.70561e-02 DIIS
   @DF-RHF iter 130:   -72.91713417348345    5.41434e-11   1.70561e-02 DIIS
   @DF-RHF iter 131:   -72.91713417361845   -1.35003e-10   1.70561e-02 DIIS
   @DF-RHF iter 132:   -72.91713417351805    1.00400e-10   1.70561e-02 DIIS
   @DF-RHF iter 133:   -72.91713417348473    3.33245e-11   1.70561e-02 DIIS
   @DF-RHF iter 134:   -72.91713417369110   -2.06370e-10   1.70561e-02 DIIS
   @DF-RHF iter 135:   -72.91713417338792    3.03174e-10   1.70561e-02 DIIS
   @DF-RHF iter 136:   -72.91713417365834   -2.70418e-10   1.70561e-02 DIIS
   @DF-RHF iter 137:   -72.91713417346855    1.89786e-10   1.70561e-02 DIIS
   @DF-RHF iter 138:   -72.91713417356085   -9.22995e-11   1.70561e-02 DIIS
   @DF-RHF iter 139:   -72.91713417364296   -8.21103e-11   1.70561e-02 DIIS
   @DF-RHF iter 140:   -72.91713417350988    1.33085e-10   1.70561e-02 DIIS
   @DF-RHF iter 141:   -72.91713417361575   -1.05871e-10   1.70561e-02 DIIS
   @DF-RHF iter 142:   -72.91713417349858    1.17168e-10   1.70561e-02 DIIS
   @DF-RHF iter 143:   -72.91713417354470   -4.61142e-11   1.70561e-02 DIIS
   @DF-RHF iter 144:   -72.91713417354428    4.12115e-13   1.70561e-02 DIIS
   @DF-RHF iter 145:   -72.91713417369621   -1.51928e-10   1.70561e-02 DIIS
   @DF-RHF iter 146:   -72.91713417345171    2.44498e-10   1.70561e-02 DIIS
   @DF-RHF iter 147:   -72.91713417363447   -1.82752e-10   1.70561e-02 DIIS
   @DF-RHF iter 148:   -72.91713417354804    8.64304e-11   1.70561e-02 DIIS
   @DF-RHF iter 149:   -72.91713417343399    1.14042e-10   1.70561e-02 DIIS
   @DF-RHF iter 150:   -72.91713417372581   -2.91820e-10   1.70561e-02 DIIS
   @DF-RHF iter 151:   -72.91713417336577    3.60046e-10   1.70561e-02 DIIS
   @DF-RHF iter 152:   -72.91713417369709   -3.31326e-10   1.70561e-02 DIIS
   @DF-RHF iter 153:   -72.91713417347083    2.26265e-10   1.70561e-02 DIIS
   @DF-RHF iter 154:   -72.91713417370107   -2.30244e-10   1.70561e-02 DIIS
   @DF-RHF iter 155:   -72.91713417337895    3.22117e-10   1.70561e-02 DIIS
   @DF-RHF iter 156:   -72.91713417371959   -3.40634e-10   1.70561e-02 DIIS
   @DF-RHF iter 157:   -72.91713417342945    2.90143e-10   1.70561e-02 DIIS
   @DF-RHF iter 158:   -72.91713417369967   -2.70219e-10   1.70561e-02 DIIS
   @DF-RHF iter 159:   -72.91713417339653    3.03132e-10   1.70561e-02 DIIS
   @DF-RHF iter 160:   -72.91713417371605   -3.19517e-10   1.70561e-02 DIIS
   @DF-RHF iter 161:   -72.91713417342322    2.92829e-10   1.70561e-02 DIIS
   @DF-RHF iter 162:   -72.91713417362503   -2.01808e-10   1.70561e-02 DIIS
   @DF-RHF iter 163:   -72.91713417344862    1.76414e-10   1.70561e-02 DIIS
   @DF-RHF iter 164:   -72.91713417366502   -2.16403e-10   1.70561e-02 DIIS
   @DF-RHF iter 165:   -72.91713417345298    2.12040e-10   1.70561e-02 DIIS
   @DF-RHF iter 166:   -72.91713417363739   -1.84414e-10   1.70561e-02 DIIS
   @DF-RHF iter 167:   -72.91713417350881    1.28580e-10   1.70561e-02 DIIS
   @DF-RHF iter 168:   -72.91713417367180   -1.62984e-10   1.70561e-02 DIIS
   @DF-RHF iter 169:   -72.91713417348024    1.91562e-10   1.70561e-02 DIIS
   @DF-RHF iter 170:   -72.91713417348996   -9.72022e-12   1.70561e-02 DIIS
   @DF-RHF iter 171:   -72.91713417361989   -1.29930e-10   1.70561e-02 DIIS
   @DF-RHF iter 172:   -72.91713417347751    1.42379e-10   1.70561e-02 DIIS
   @DF-RHF iter 173:   -72.91713417372601   -2.48505e-10   1.70561e-02 DIIS
   @DF-RHF iter 174:   -72.91713417349015    2.35858e-10   1.70561e-02 DIIS
   @DF-RHF iter 175:   -72.91713417358068   -9.05231e-11   1.70561e-02 DIIS
   @DF-RHF iter 176:   -72.91713417358831   -7.63123e-12   1.70561e-02 DIIS
   @DF-RHF iter 177:   -72.91713417356483    2.34763e-11   1.70561e-02 DIIS
   @DF-RHF iter 178:   -72.91713417348447    8.03624e-11   1.70561e-02 DIIS
   @DF-RHF iter 179:   -72.91713417373845   -2.53976e-10   1.70561e-02 DIIS
   @DF-RHF iter 180:   -72.91713417351988    2.18563e-10   1.70561e-02 DIIS
   @DF-RHF iter 181:   -72.91713417351329    6.59384e-12   1.70561e-02 DIIS
   @DF-RHF iter 182:   -72.91713417360410   -9.08074e-11   1.70561e-02 DIIS
   @DF-RHF iter 183:   -72.91713417363798   -3.38787e-11   1.70561e-02 DIIS
   @DF-RHF iter 184:   -72.91713417353341    1.04563e-10   1.70561e-02 DIIS
   @DF-RHF iter 185:   -72.91713417348237    5.10454e-11   1.70561e-02 DIIS
   @DF-RHF iter 186:   -72.91713417353286   -5.04912e-11   1.70561e-02 DIIS
   @DF-RHF iter 187:   -72.91713417359786   -6.50004e-11   1.70561e-02 DIIS
   @DF-RHF iter 188:   -72.91713417345615    1.41711e-10   1.70561e-02 DIIS
   @DF-RHF iter 189:   -72.91713417370362   -2.47468e-10   1.70561e-02 DIIS
   @DF-RHF iter 190:   -72.91713417337218    3.31440e-10   1.70561e-02 DIIS
   @DF-RHF iter 191:   -72.91713417369881   -3.26636e-10   1.70561e-02 DIIS
   @DF-RHF iter 192:   -72.91713417347201    2.26805e-10   1.70561e-02 DIIS
   @DF-RHF iter 193:   -72.91713417356898   -9.69749e-11   1.70561e-02 DIIS
   @DF-RHF iter 194:   -72.91713417361770   -4.87148e-11   1.70561e-02 DIIS
   @DF-RHF iter 195:   -72.91713417351960    9.80975e-11   1.70561e-02 DIIS
   @DF-RHF iter 196:   -72.91713417350633    1.32729e-11   1.70561e-02 DIIS
   @DF-RHF iter 197:   -72.91713417364861   -1.42279e-10   1.70561e-02 DIIS
   @DF-RHF iter 198:   -72.91713417352024    1.28367e-10   1.70561e-02 DIIS
   @DF-RHF iter 199:   -72.91713417359239   -7.21485e-11   1.70561e-02 DIIS
   @DF-RHF iter 200:   -72.91713417354148    5.09033e-11   1.70561e-02 DIIS
   @DF-RHF iter 201:   -72.91713417355152   -1.00329e-11   1.70561e-02 DIIS
   @DF-RHF iter 202:   -72.91713417359288   -4.13678e-11   1.70561e-02 DIIS
   @DF-RHF iter 203:   -72.91713417370953   -1.16643e-10   1.70561e-02 DIIS
   @DF-RHF iter 204:   -72.91713417346926    2.40263e-10   1.70561e-02 DIIS
   @DF-RHF iter 205:   -72.91713417354229   -7.30296e-11   1.70561e-02 DIIS
   @DF-RHF iter 206:   -72.91713417347471    6.75868e-11   1.70561e-02 DIIS
   @DF-RHF iter 207:   -72.91713417359682   -1.22114e-10   1.70561e-02 DIIS
   @DF-RHF iter 208:   -72.91713417354150    5.53229e-11   1.70561e-02 DIIS
   @DF-RHF iter 209:   -72.91713417352291    1.85878e-11   1.70561e-02 DIIS
   @DF-RHF iter 210:   -72.91713417352017    2.74269e-12   1.70561e-02 DIIS
   @DF-RHF iter 211:   -72.91713417362189   -1.01721e-10   1.70561e-02 DIIS
   @DF-RHF iter 212:   -72.91713417359003    3.18607e-11   1.70561e-02 DIIS
   @DF-RHF iter 213:   -72.91713417362915   -3.91225e-11   1.70561e-02 DIIS
   @DF-RHF iter 214:   -72.91713417354407    8.50804e-11   1.70561e-02 DIIS
   @DF-RHF iter 215:   -72.91713417349881    4.52616e-11   1.70561e-02 DIIS
   @DF-RHF iter 216:   -72.91713417365730   -1.58494e-10   1.70561e-02 DIIS
   @DF-RHF iter 217:   -72.91713417340424    2.53067e-10   1.70561e-02 DIIS
   @DF-RHF iter 218:   -72.91713417373690   -3.32662e-10   1.70561e-02 DIIS
   @DF-RHF iter 219:   -72.91713417345871    2.78192e-10   1.70561e-02 DIIS
   @DF-RHF iter 220:   -72.91713417358628   -1.27571e-10   1.70561e-02 DIIS
   @DF-RHF iter 221:   -72.91713417348851    9.77707e-11   1.70561e-02 DIIS
   @DF-RHF iter 222:   -72.91713417361655   -1.28040e-10   1.70561e-02 DIIS
   @DF-RHF iter 223:   -72.91713417343696    1.79583e-10   1.70561e-02 DIIS
   @DF-RHF iter 224:   -72.91713417373052   -2.93554e-10   1.70561e-02 DIIS
   @DF-RHF iter 225:   -72.91713417344359    2.86931e-10   1.70561e-02 DIIS
   @DF-RHF iter 226:   -72.91713417371345   -2.69864e-10   1.70561e-02 DIIS
   @DF-RHF iter 227:   -72.91713417344442    2.69026e-10   1.70561e-02 DIIS
   @DF-RHF iter 228:   -72.91713417366293   -2.18506e-10   1.70561e-02 DIIS
   @DF-RHF iter 229:   -72.91713417349851    1.64420e-10   1.70561e-02 DIIS
   @DF-RHF iter 230:   -72.91713417359145   -9.29390e-11   1.70561e-02 DIIS
   @DF-RHF iter 231:   -72.91713417356399    2.74554e-11   1.70561e-02 DIIS
   @DF-RHF iter 232:   -72.91713417356951   -5.51381e-12   1.70561e-02 DIIS
   @DF-RHF iter 233:   -72.91713417352247    4.70379e-11   1.70561e-02 DIIS
   @DF-RHF iter 234:   -72.91713417355143   -2.89617e-11   1.70561e-02 DIIS
   @DF-RHF iter 235:   -72.91713417351869    3.27418e-11   1.70561e-02 DIIS
   @DF-RHF iter 236:   -72.91713417365089   -1.32204e-10   1.70561e-02 DIIS
   @DF-RHF iter 237:   -72.91713417344204    2.08857e-10   1.70561e-02 DIIS
   @DF-RHF iter 238:   -72.91713417371241   -2.70376e-10   1.70561e-02 DIIS
   @DF-RHF iter 239:   -72.91713417338561    3.26807e-10   1.70561e-02 DIIS
   @DF-RHF iter 240:   -72.91713417370873   -3.23126e-10   1.70561e-02 DIIS
   @DF-RHF iter 241:   -72.91713417343647    2.72266e-10   1.70561e-02 DIIS
   @DF-RHF iter 242:   -72.91713417361632   -1.79853e-10   1.70561e-02 DIIS
   @DF-RHF iter 243:   -72.91713417348721    1.29106e-10   1.70561e-02 DIIS
   @DF-RHF iter 244:   -72.91713417356127   -7.40528e-11   1.70561e-02 DIIS
   @DF-RHF iter 245:   -72.91713417365972   -9.84528e-11   1.70561e-02 DIIS
   @DF-RHF iter 246:   -72.91713417352064    1.39082e-10   1.70561e-02 DIIS
   @DF-RHF iter 247:   -72.91713417352325   -2.61480e-12   1.70561e-02 DIIS
   @DF-RHF iter 248:   -72.91713417370289   -1.79639e-10   1.70561e-02 DIIS
   @DF-RHF iter 249:   -72.91713417341802    2.84871e-10   1.70561e-02 DIIS
   @DF-RHF iter 250:   -72.91713417372037   -3.02350e-10   1.70561e-02 DIIS
   @DF-RHF iter 251:   -72.91713417335522    3.65148e-10   1.70561e-02 DIIS
   @DF-RHF iter 252:   -72.91713417369546   -3.40236e-10   1.70561e-02 DIIS
   @DF-RHF iter 253:   -72.91713417347799    2.17469e-10   1.70561e-02 DIIS
   @DF-RHF iter 254:   -72.91713417363184   -1.53847e-10   1.70561e-02 DIIS
   @DF-RHF iter 255:   -72.91713417361984    1.19940e-11   1.70561e-02 DIIS
   @DF-RHF iter 256:   -72.91713417346374    1.56106e-10   1.70561e-02 DIIS
   @DF-RHF iter 257:   -72.91713417346969   -5.95435e-12   1.70561e-02 DIIS
   @DF-RHF iter 258:   -72.91713417365033   -1.80634e-10   1.70561e-02 DIIS
   @DF-RHF iter 259:   -72.91713417343738    2.12950e-10   1.70561e-02 DIIS
   @DF-RHF iter 260:   -72.91713417368128   -2.43901e-10   1.70561e-02 DIIS
   @DF-RHF iter 261:   -72.91713417352875    1.52525e-10   1.70561e-02 DIIS
   @DF-RHF iter 262:   -72.91713417360683   -7.80744e-11   1.70561e-02 DIIS
   @DF-RHF iter 263:   -72.91713417342527    1.81558e-10   1.70561e-02 DIIS
   @DF-RHF iter 264:   -72.91713417363604   -2.10775e-10   1.70561e-02 DIIS
   @DF-RHF iter 265:   -72.91713417341292    2.23125e-10   1.70561e-02 DIIS
   @DF-RHF iter 266:   -72.91713417376356   -3.50639e-10   1.70561e-02 DIIS
   @DF-RHF iter 267:   -72.91713417356141    2.02149e-10   1.70561e-02 DIIS
   @DF-RHF iter 268:   -72.91713417358905   -2.76401e-11   1.70561e-02 DIIS
   @DF-RHF iter 269:   -72.91713417348890    1.00144e-10   1.70561e-02 DIIS
   @DF-RHF iter 270:   -72.91713417356246   -7.35554e-11   1.70561e-02 DIIS
   @DF-RHF iter 271:   -72.91713417359429   -3.18323e-11   1.70561e-02 DIIS
   @DF-RHF iter 272:   -72.91713417345603    1.38257e-10   1.70561e-02 DIIS
   @DF-RHF iter 273:   -72.91713417366380   -2.07763e-10   1.70561e-02 DIIS
   @DF-RHF iter 274:   -72.91713417355669    1.07107e-10   1.70561e-02 DIIS
   @DF-RHF iter 275:   -72.91713417349236    6.43325e-11   1.70561e-02 DIIS
   @DF-RHF iter 276:   -72.91713417361963   -1.27272e-10   1.70561e-02 DIIS
   @DF-RHF iter 277:   -72.91713417354856    7.10685e-11   1.70561e-02 DIIS
   @DF-RHF iter 278:   -72.91713417356104   -1.24771e-11   1.70561e-02 DIIS
   @DF-RHF iter 279:   -72.91713417351363    4.74074e-11   1.70561e-02 DIIS
   @DF-RHF iter 280:   -72.91713417355847   -4.48352e-11   1.70561e-02 DIIS
   @DF-RHF iter 281:   -72.91713417353805    2.04210e-11   1.70561e-02 DIIS
   @DF-RHF iter 282:   -72.91713417360944   -7.13953e-11   1.70561e-02 DIIS
   @DF-RHF iter 283:   -72.91713417350385    1.05587e-10   1.70561e-02 DIIS
   @DF-RHF iter 284:   -72.91713417370083   -1.96977e-10   1.70561e-02 DIIS
   @DF-RHF iter 285:   -72.91713417347340    2.27431e-10   1.70561e-02 DIIS
   @DF-RHF iter 286:   -72.91713417363364   -1.60242e-10   1.70561e-02 DIIS
   @DF-RHF iter 287:   -72.91713417353132    1.02318e-10   1.70561e-02 DIIS
   @DF-RHF iter 288:   -72.91713417345329    7.80318e-11   1.70561e-02 DIIS
   @DF-RHF iter 289:   -72.91713417370008   -2.46786e-10   1.70561e-02 DIIS
   @DF-RHF iter 290:   -72.91713417332991    3.70164e-10   1.70561e-02 DIIS
   @DF-RHF iter 291:   -72.91713417374642   -4.16506e-10   1.70561e-02 DIIS
   @DF-RHF iter 292:   -72.91713417345073    2.95685e-10   1.70561e-02 DIIS
   @DF-RHF iter 293:   -72.91713417367539   -2.24659e-10   1.70561e-02 DIIS
   @DF-RHF iter 294:   -72.91713417347052    2.04878e-10   1.70561e-02 DIIS
   @DF-RHF iter 295:   -72.91713417361177   -1.41256e-10   1.70561e-02 DIIS
   @DF-RHF iter 296:   -72.91713417348461    1.27159e-10   1.70561e-02 DIIS
   @DF-RHF iter 297:   -72.91713417360823   -1.23620e-10   1.70561e-02 DIIS
   @DF-RHF iter 298:   -72.91713417349858    1.09651e-10   1.70561e-02 DIIS
   @DF-RHF iter 299:   -72.91713417362624   -1.27656e-10   1.70561e-02 DIIS
   @DF-RHF iter 300:   -72.91713417367559   -4.93543e-11   1.70561e-02 DIIS
   @DF-RHF iter 301:   -72.91713417346135    2.14243e-10   1.70561e-02 DIIS
   @DF-RHF iter 302:   -72.91713417345095    1.04023e-11   1.70561e-02 DIIS
   @DF-RHF iter 303:   -72.91713417372655   -2.75605e-10   1.70561e-02 DIIS
   @DF-RHF iter 304:   -72.91713417338616    3.40393e-10   1.70561e-02 DIIS
   @DF-RHF iter 305:   -72.91713417379158   -4.05421e-10   1.70561e-02 DIIS
   @DF-RHF iter 306:   -72.91713417338647    4.05109e-10   1.70561e-02 DIIS
   @DF-RHF iter 307:   -72.91713417362872   -2.42252e-10   1.70561e-02 DIIS
   @DF-RHF iter 308:   -72.91713417364122   -1.24913e-11   1.70561e-02 DIIS
   @DF-RHF iter 309:   -72.91713417343196    2.09255e-10   1.70561e-02 DIIS
   @DF-RHF iter 310:   -72.91713417367070   -2.38742e-10   1.70561e-02 DIIS
   @DF-RHF iter 311:   -72.91713417349152    1.79185e-10   1.70561e-02 DIIS
   @DF-RHF iter 312:   -72.91713417351465   -2.31353e-11   1.70561e-02 DIIS
   @DF-RHF iter 313:   -72.91713417347634    3.83125e-11   1.70561e-02 DIIS
   @DF-RHF iter 314:   -72.91713417369601   -2.19671e-10   1.70561e-02 DIIS
   @DF-RHF iter 315:   -72.91713417345811    2.37904e-10   1.70561e-02 DIIS
   @DF-RHF iter 316:   -72.91713417362445   -1.66338e-10   1.70561e-02 DIIS
   @DF-RHF iter 317:   -72.91713417360945    1.49925e-11   1.70561e-02 DIIS
   @DF-RHF iter 318:   -72.91713417340924    2.00217e-10   1.70561e-02 DIIS
   @DF-RHF iter 319:   -72.91713417375983   -3.50596e-10   1.70561e-02 DIIS
   @DF-RHF iter 320:   -72.91713417342470    3.35135e-10   1.70561e-02 DIIS
   @DF-RHF iter 321:   -72.91713417359368   -1.68981e-10   1.70561e-02 DIIS
   @DF-RHF iter 322:   -72.91713417336118    2.32504e-10   1.70561e-02 DIIS
   @DF-RHF iter 323:   -72.91713417387145   -5.10269e-10   1.70561e-02 DIIS
   @DF-RHF iter 324:   -72.91713417338586    4.85585e-10   1.70561e-02 DIIS
   @DF-RHF iter 325:   -72.91713417360725   -2.21391e-10   1.70561e-02 DIIS
   @DF-RHF iter 326:   -72.91713417357073    3.65219e-11   1.70561e-02 DIIS
   @DF-RHF iter 327:   -72.91713417360512   -3.43903e-11   1.70561e-02 DIIS
   @DF-RHF iter 328:   -72.91713417351440    9.07221e-11   1.70561e-02 DIIS
   @DF-RHF iter 329:   -72.91713417351650   -2.10321e-12   1.70561e-02 DIIS
   @DF-RHF iter 330:   -72.91713417365551   -1.39011e-10   1.70561e-02 DIIS
   @DF-RHF iter 331:   -72.91713417347079    1.84727e-10   1.70561e-02 DIIS
   @DF-RHF iter 332:   -72.91713417357603   -1.05246e-10   1.70561e-02 DIIS
   @DF-RHF iter 333:   -72.91713417353732    3.87104e-11   1.70561e-02 DIIS
   @DF-RHF iter 334:   -72.91713417370910   -1.71781e-10   1.70561e-02 DIIS
   @DF-RHF iter 335:   -72.91713417356296    1.46144e-10   1.70561e-02 DIIS
   @DF-RHF iter 336:   -72.91713417343564    1.27315e-10   1.70561e-02 DIIS
   @DF-RHF iter 337:   -72.91713417360353   -1.67887e-10   1.70561e-02 DIIS
   @DF-RHF iter 338:   -72.91713417364414   -4.06146e-11   1.70561e-02 DIIS
   @DF-RHF iter 339:   -72.91713417340884    2.35303e-10   1.70561e-02 DIIS
   @DF-RHF iter 340:   -72.91713417376489   -3.56053e-10   1.70561e-02 DIIS
   @DF-RHF iter 341:   -72.91713417336119    4.03702e-10   1.70561e-02 DIIS
   @DF-RHF iter 342:   -72.91713417371011   -3.48919e-10   1.70561e-02 DIIS
   @DF-RHF iter 343:   -72.91713417345815    2.51958e-10   1.70561e-02 DIIS
   @DF-RHF iter 344:   -72.91713417356139   -1.03242e-10   1.70561e-02 DIIS
   @DF-RHF iter 345:   -72.91713417352025    4.11404e-11   1.70561e-02 DIIS
   @DF-RHF iter 346:   -72.91713417364699   -1.26732e-10   1.70561e-02 DIIS
   @DF-RHF iter 347:   -72.91713417348133    1.65656e-10   1.70561e-02 DIIS
   @DF-RHF iter 348:   -72.91713417369593   -2.14598e-10   1.70561e-02 DIIS
   @DF-RHF iter 349:   -72.91713417333841    3.57517e-10   1.70561e-02 DIIS
   @DF-RHF iter 350:   -72.91713417383895   -5.00535e-10   1.70561e-02 DIIS
   @DF-RHF iter 351:   -72.91713417336000    4.78948e-10   1.70561e-02 DIIS
   @DF-RHF iter 352:   -72.91713417366918   -3.09186e-10   1.70561e-02 DIIS
   @DF-RHF iter 353:   -72.91713417345994    2.09241e-10   1.70561e-02 DIIS
   @DF-RHF iter 354:   -72.91713417368169   -2.21746e-10   1.70561e-02 DIIS
   @DF-RHF iter 355:   -72.91713417348055    2.01140e-10   1.70561e-02 DIIS
   @DF-RHF iter 356:   -72.91713417355555   -7.50049e-11   1.70561e-02 DIIS
   @DF-RHF iter 357:   -72.91713417352513    3.04254e-11   1.70561e-02 DIIS
   @DF-RHF iter 358:   -72.91713417346048    6.46452e-11   1.70561e-02 DIIS
   @DF-RHF iter 359:   -72.91713417375639   -2.95913e-10   1.70561e-02 DIIS
   @DF-RHF iter 360:   -72.91713417337515    3.81249e-10   1.70561e-02 DIIS
   @DF-RHF iter 361:   -72.91713417362132   -2.46175e-10   1.70561e-02 DIIS
   @DF-RHF iter 362:   -72.91713417353616    8.51657e-11   1.70561e-02 DIIS
   @DF-RHF iter 363:   -72.91713417366594   -1.29788e-10   1.70561e-02 DIIS
   @DF-RHF iter 364:   -72.91713417352653    1.39408e-10   1.70561e-02 DIIS
   @DF-RHF iter 365:   -72.91713417347738    4.91553e-11   1.70561e-02 DIIS
   @DF-RHF iter 366:   -72.91713417366955   -1.92173e-10   1.70561e-02 DIIS
   @DF-RHF iter 367:   -72.91713417359321    7.63407e-11   1.70561e-02 DIIS
   @DF-RHF iter 368:   -72.91713417342049    1.72719e-10   1.70561e-02 DIIS
   @DF-RHF iter 369:   -72.91713417346025   -3.97620e-11   1.70561e-02 DIIS
   @DF-RHF iter 370:   -72.91713417361751   -1.57257e-10   1.70561e-02 DIIS
   @DF-RHF iter 371:   -72.91713417345440    1.63112e-10   1.70561e-02 DIIS
   @DF-RHF iter 372:   -72.91713417372654   -2.72138e-10   1.70561e-02 DIIS
   @DF-RHF iter 373:   -72.91713417348731    2.39226e-10   1.70561e-02 DIIS
   @DF-RHF iter 374:   -72.91713417357946   -9.21432e-11   1.70561e-02 DIIS
   @DF-RHF iter 375:   -72.91713417348942    9.00400e-11   1.70561e-02 DIIS
   @DF-RHF iter 376:   -72.91713417358976   -1.00343e-10   1.70561e-02 DIIS
   @DF-RHF iter 377:   -72.91713417367907   -8.93152e-11   1.70561e-02 DIIS
   @DF-RHF iter 378:   -72.91713417349138    1.87697e-10   1.70561e-02 DIIS
   @DF-RHF iter 379:   -72.91713417353807   -4.66969e-11   1.70561e-02 DIIS
   @DF-RHF iter 380:   -72.91713417356556   -2.74838e-11   1.70561e-02 DIIS
   @DF-RHF iter 381:   -72.91713417358002   -1.44667e-11   1.70561e-02 DIIS
   @DF-RHF iter 382:   -72.91713417337894    2.01084e-10   1.70561e-02 DIIS
   @DF-RHF iter 383:   -72.91713417373322   -3.54277e-10   1.70561e-02 DIIS
   @DF-RHF iter 384:   -72.91713417355007    1.83149e-10   1.70561e-02 DIIS
   @DF-RHF iter 385:   -72.91713417353257    1.74936e-11   1.70561e-02 DIIS
   @DF-RHF iter 386:   -72.91713417357280   -4.02309e-11   1.70561e-02 DIIS
   @DF-RHF iter 387:   -72.91713417344076    1.32047e-10   1.70561e-02 DIIS
   @DF-RHF iter 388:   -72.91713417365729   -2.16531e-10   1.70561e-02 DIIS
   @DF-RHF iter 389:   -72.91713417352537    1.31919e-10   1.70561e-02 DIIS
   @DF-RHF iter 390:   -72.91713417364333   -1.17964e-10   1.70561e-02 DIIS
   @DF-RHF iter 391:   -72.91713417352700    1.16330e-10   1.70561e-02 DIIS
   @DF-RHF iter 392:   -72.91713417356306   -3.60529e-11   1.70561e-02 DIIS
   @DF-RHF iter 393:   -72.91713417344826    1.14795e-10   1.70561e-02 DIIS
   @DF-RHF iter 394:   -72.91713417371147   -2.63213e-10   1.70561e-02 DIIS
   @DF-RHF iter 395:   -72.91713417335902    3.52458e-10   1.70561e-02 DIIS
   @DF-RHF iter 396:   -72.91713417364329   -2.84274e-10   1.70561e-02 DIIS
   @DF-RHF iter 397:   -72.91713417370470   -6.14051e-11   1.70561e-02 DIIS
   @DF-RHF iter 398:   -72.91713417335149    3.53211e-10   1.70561e-02 DIIS
   @DF-RHF iter 399:   -72.91713417376890   -4.17415e-10   1.70561e-02 DIIS
   @DF-RHF iter 400:   -72.91713417344953    3.19375e-10   1.70561e-02 DIIS
   @DF-RHF iter 401:   -72.91713417360315   -1.53619e-10   1.70561e-02 DIIS
   @DF-RHF iter 402:   -72.91713417351916    8.39862e-11   1.70561e-02 DIIS
   @DF-RHF iter 403:   -72.91713417352214   -2.98428e-12   1.70561e-02 DIIS
   @DF-RHF iter 404:   -72.91713417360974   -8.75957e-11   1.70561e-02 DIIS
   @DF-RHF iter 405:   -72.91713417357145    3.82840e-11   1.70561e-02 DIIS
   @DF-RHF iter 406:   -72.91713417356479    6.66489e-12   1.70561e-02 DIIS
   @DF-RHF iter 407:   -72.91713417355196    1.28324e-11   1.70561e-02 DIIS
   @DF-RHF iter 408:   -72.91713417348896    6.29967e-11   1.70561e-02 DIIS
   @DF-RHF iter 409:   -72.91713417356877   -7.98082e-11   1.70561e-02 DIIS
   @DF-RHF iter 410:   -72.91713417357032   -1.54898e-12   1.70561e-02 DIIS
   @DF-RHF iter 411:   -72.91713417346480    1.05516e-10   1.70561e-02 DIIS
   @DF-RHF iter 412:   -72.91713417371648   -2.51674e-10   1.70561e-02 DIIS
   @DF-RHF iter 413:   -72.91713417341302    3.03459e-10   1.70561e-02 DIIS
   @DF-RHF iter 414:   -72.91713417372328   -3.10266e-10   1.70561e-02 DIIS
   @DF-RHF iter 415:   -72.91713417345510    2.68187e-10   1.70561e-02 DIIS
   @DF-RHF iter 416:   -72.91713417358909   -1.33994e-10   1.70561e-02 DIIS
   @DF-RHF iter 417:   -72.91713417351335    7.57439e-11   1.70561e-02 DIIS
   @DF-RHF iter 418:   -72.91713417354931   -3.59677e-11   1.70561e-02 DIIS
   @DF-RHF iter 419:   -72.91713417348717    6.21441e-11   1.70561e-02 DIIS
   @DF-RHF iter 420:   -72.91713417375368   -2.66510e-10   1.70561e-02 DIIS
   @DF-RHF iter 421:   -72.91713417354111    2.12566e-10   1.70561e-02 DIIS
   @DF-RHF iter 422:   -72.91713417352163    1.94831e-11   1.70561e-02 DIIS
   @DF-RHF iter 423:   -72.91713417364861   -1.26974e-10   1.70561e-02 DIIS
   @DF-RHF iter 424:   -72.91713417334148    3.07125e-10   1.70561e-02 DIIS
   @DF-RHF iter 425:   -72.91713417374932   -4.07837e-10   1.70561e-02 DIIS
   @DF-RHF iter 426:   -72.91713417341609    3.33230e-10   1.70561e-02 DIIS
   @DF-RHF iter 427:   -72.91713417350044   -8.43556e-11   1.70561e-02 DIIS
   @DF-RHF iter 428:   -72.91713417368362   -1.83178e-10   1.70561e-02 DIIS
   @DF-RHF iter 429:   -72.91713417355854    1.25084e-10   1.70561e-02 DIIS
   @DF-RHF iter 430:   -72.91713417341819    1.40346e-10   1.70561e-02 DIIS
   @DF-RHF iter 431:   -72.91713417373747   -3.19275e-10   1.70561e-02 DIIS
   @DF-RHF iter 432:   -72.91713417343756    2.99906e-10   1.70561e-02 DIIS
   @DF-RHF iter 433:   -72.91713417363697   -1.99407e-10   1.70561e-02 DIIS
   @DF-RHF iter 434:   -72.91713417356607    7.08980e-11   1.70561e-02 DIIS
   @DF-RHF iter 435:   -72.91713417342444    1.41625e-10   1.70561e-02 DIIS
   @DF-RHF iter 436:   -72.91713417370349   -2.79044e-10   1.70561e-02 DIIS
   @DF-RHF iter 437:   -72.91713417343752    2.65970e-10   1.70561e-02 DIIS
   @DF-RHF iter 438:   -72.91713417358861   -1.51090e-10   1.70561e-02 DIIS
   @DF-RHF iter 439:   -72.91713417362934   -4.07283e-11   1.70561e-02 DIIS
   @DF-RHF iter 440:   -72.91713417356621    6.31246e-11   1.70561e-02 DIIS
   @DF-RHF iter 441:   -72.91713417365393   -8.77236e-11   1.70561e-02 DIIS
   @DF-RHF iter 442:   -72.91713417340898    2.44953e-10   1.70561e-02 DIIS
   @DF-RHF iter 443:   -72.91713417369904   -2.90058e-10   1.70561e-02 DIIS
   @DF-RHF iter 444:   -72.91713417347160    2.27445e-10   1.70561e-02 DIIS
   @DF-RHF iter 445:   -72.91713417357279   -1.01195e-10   1.70561e-02 DIIS
   @DF-RHF iter 446:   -72.91713417356880    3.99325e-12   1.70561e-02 DIIS
   @DF-RHF iter 447:   -72.91713417355825    1.05445e-11   1.70561e-02 DIIS
   @DF-RHF iter 448:   -72.91713417349487    6.33804e-11   1.70561e-02 DIIS
   @DF-RHF iter 449:   -72.91713417363400   -1.39124e-10   1.70561e-02 DIIS
   @DF-RHF iter 450:   -72.91713417346590    1.68100e-10   1.70561e-02 DIIS
   @DF-RHF iter 451:   -72.91713417364454   -1.78645e-10   1.70561e-02 DIIS
   @DF-RHF iter 452:   -72.91713417343679    2.07748e-10   1.70561e-02 DIIS
   @DF-RHF iter 453:   -72.91713417375388   -3.17087e-10   1.70561e-02 DIIS
   @DF-RHF iter 454:   -72.91713417344127    3.12610e-10   1.70561e-02 DIIS
   @DF-RHF iter 455:   -72.91713417357997   -1.38698e-10   1.70561e-02 DIIS
   @DF-RHF iter 456:   -72.91713417350650    7.34701e-11   1.70561e-02 DIIS
   @DF-RHF iter 457:   -72.91713417365933   -1.52838e-10   1.70561e-02 DIIS
   @DF-RHF iter 458:   -72.91713417341917    2.40163e-10   1.70561e-02 DIIS
   @DF-RHF iter 459:   -72.91713417377900   -3.59833e-10   1.70561e-02 DIIS
   @DF-RHF iter 460:   -72.91713417337367    4.05336e-10   1.70561e-02 DIIS
   @DF-RHF iter 461:   -72.91713417362944   -2.55767e-10   1.70561e-02 DIIS
   @DF-RHF iter 462:   -72.91713417347901    1.50422e-10   1.70561e-02 DIIS
   @DF-RHF iter 463:   -72.91713417375918   -2.80167e-10   1.70561e-02 DIIS
   @DF-RHF iter 464:   -72.91713417337117    3.88013e-10   1.70561e-02 DIIS
   @DF-RHF iter 465:   -72.91713417365180   -2.80636e-10   1.70561e-02 DIIS
   @DF-RHF iter 466:   -72.91713417347982    1.71980e-10   1.70561e-02 DIIS
   @DF-RHF iter 467:   -72.91713417364741   -1.67589e-10   1.70561e-02 DIIS
   @DF-RHF iter 468:   -72.91713417348629    1.61123e-10   1.70561e-02 DIIS
   @DF-RHF iter 469:   -72.91713417357471   -8.84199e-11   1.70561e-02 DIIS
   @DF-RHF iter 470:   -72.91713417358997   -1.52625e-11   1.70561e-02 DIIS
   @DF-RHF iter 471:   -72.91713417348286    1.07107e-10   1.70561e-02 DIIS
   @DF-RHF iter 472:   -72.91713417362720   -1.44340e-10   1.70561e-02 DIIS
   @DF-RHF iter 473:   -72.91713417346328    1.63922e-10   1.70561e-02 DIIS
   @DF-RHF iter 474:   -72.91713417360793   -1.44652e-10   1.70561e-02 DIIS
   @DF-RHF iter 475:   -72.91713417347209    1.35842e-10   1.70561e-02 DIIS
   @DF-RHF iter 476:   -72.91713417362833   -1.56234e-10   1.70561e-02 DIIS
   @DF-RHF iter 477:   -72.91713417355706    7.12674e-11   1.70561e-02 DIIS
   @DF-RHF iter 478:   -72.91713417352453    3.25286e-11   1.70561e-02 DIIS
   @DF-RHF iter 479:   -72.91713417356128   -3.67493e-11   1.70561e-02 DIIS
   @DF-RHF iter 480:   -72.91713417361213   -5.08464e-11   1.70561e-02 DIIS
   @DF-RHF iter 481:   -72.91713417354322    6.89084e-11   1.70561e-02 DIIS
   @DF-RHF iter 482:   -72.91713417343098    1.12237e-10   1.70561e-02 DIIS
   @DF-RHF iter 483:   -72.91713417368686   -2.55881e-10   1.70561e-02 DIIS
   @DF-RHF iter 484:   -72.91713417359503    9.18305e-11   1.70561e-02 DIIS
   @DF-RHF iter 485:   -72.91713417343739    1.57641e-10   1.70561e-02 DIIS
   @DF-RHF iter 486:   -72.91713417361839   -1.81004e-10   1.70561e-02 DIIS
   @DF-RHF iter 487:   -72.91713417355976    5.86340e-11   1.70561e-02 DIIS
   @DF-RHF iter 488:   -72.91713417357178   -1.20224e-11   1.70561e-02 DIIS
   @DF-RHF iter 489:   -72.91713417355960    1.21787e-11   1.70561e-02 DIIS
   @DF-RHF iter 490:   -72.91713417364173   -8.21245e-11   1.70561e-02 DIIS
   @DF-RHF iter 491:   -72.91713417337880    2.62929e-10   1.70561e-02 DIIS
   @DF-RHF iter 492:   -72.91713417364477   -2.65970e-10   1.70561e-02 DIIS
   @DF-RHF iter 493:   -72.91713417345653    1.88237e-10   1.70561e-02 DIIS
   @DF-RHF iter 494:   -72.91713417373512   -2.78590e-10   1.70561e-02 DIIS
   @DF-RHF iter 495:   -72.91713417344791    2.87216e-10   1.70561e-02 DIIS
   @DF-RHF iter 496:   -72.91713417364608   -1.98170e-10   1.70561e-02 DIIS
   @DF-RHF iter 497:   -72.91713417346807    1.78005e-10   1.70561e-02 DIIS
   @DF-RHF iter 498:   -72.91713417364853   -1.80464e-10   1.70561e-02 DIIS
   @DF-RHF iter 499:   -72.91713417355383    9.47011e-11   1.70561e-02 DIIS
   @DF-RHF iter 500:   -72.91713417347785    7.59854e-11   1.70561e-02 DIIS

  ==> Post-Iterations <==

  Failed to converge.
Iterations did not converge.Iterations did not converge.

Properties will be evaluated at   0.000000,   0.000000,   0.000000 [a0]

Properties computed using the SCF density matrix

  Nuclear Dipole Moment: [e a0]
     X:     0.0000      Y:    -0.0000      Z:     3.0572

  Electronic Dipole Moment: [e a0]
     X:    -0.0000      Y:    -0.0000      Z:     3.8594

  Dipole Moment: [e a0]
     X:    -0.0000      Y:    -0.0000      Z:     6.9166     Total:     6.9166

  Dipole Moment: [D]
     X:    -0.0000      Y:    -0.0000      Z:    17.5802     Total:    17.5802


*** tstop() called on ed4 at Tue Dec  4 11:58:58 2018
Module time:
	user time   =       0.56 seconds =       0.01 minutes
	system time =       0.08 seconds =       0.00 minutes
	total time  =          1 seconds =       0.02 minutes
Total time:
	user time   =       0.56 seconds =       0.01 minutes
	system time =       0.08 seconds =       0.00 minutes
	total time  =          1 seconds =       0.02 minutes

Reading options from the V2RDM_DOCI block
Calling plugin v2rdm_doci.so.



*** tstart() called on ed4
*** at Tue Dec  4 11:58:58 2018

  ==> Boys Localizer <==

    Convergence =   1.000E-08
    Maxiter     =          50

    Iteration                   Metric       Residual
    @Boys    0   1.1282256579897583E+00              -
    @Boys    1   1.9746017449261308E+00   7.501833E-01
    @Boys    2   2.0057202592107735E+00   1.575939E-02
    @Boys    3   2.0061380802825424E+00   2.083147E-04
    @Boys    4   2.0063099748730062E+00   8.568433E-05
    @Boys    5   2.0064857730872152E+00   8.762266E-05
    @Boys    6   2.0066739891880276E+00   9.380386E-05
    @Boys    7   2.0069178669711434E+00   1.215333E-04
    @Boys    8   2.0071726197928852E+00   1.269373E-04
    @Boys    9   2.0074875089869701E+00   1.568820E-04
    @Boys   10   2.0077445956121149E+00   1.280639E-04
    @Boys   11   2.0080001000912562E+00   1.272595E-04
    @Boys   12   2.0082718912321118E+00   1.353541E-04
    @Boys   13   2.0086022161619255E+00   1.644822E-04
    @Boys   14   2.0089316637886241E+00   1.640184E-04
    @Boys   15   2.0093333118495043E+00   1.999312E-04
    @Boys   16   2.0097303114699385E+00   1.975778E-04
    @Boys   17   2.0101442930542053E+00   2.059886E-04
    @Boys   18   2.0104903780842260E+00   1.721692E-04
    @Boys   19   2.0109114287646062E+00   2.094269E-04
    @Boys   20   2.0113169619915374E+00   2.016664E-04
    @Boys   21   2.0116449441947122E+00   1.630684E-04
    @Boys   22   2.0120763900462313E+00   2.144742E-04
    @Boys   23   2.0123457808561902E+00   1.338870E-04
    @Boys   24   2.0126306061200130E+00   1.415389E-04
    @Boys   25   2.0130417547451742E+00   2.042842E-04
    @Boys   26   2.0134104068284984E+00   1.831319E-04
    @Boys   27   2.0136238165324540E+00   1.059941E-04
    @Boys   28   2.0138966396197446E+00   1.354886E-04
    @Boys   29   2.0141452851127140E+00   1.234649E-04
    @Boys   30   2.0144721809701620E+00   1.623000E-04
    @Boys   31   2.0146499536734828E+00   8.824778E-05
    @Boys   32   2.0149553407559262E+00   1.515832E-04
    @Boys   33   2.0152190497446170E+00   1.308758E-04
    @Boys   34   2.0153837947592996E+00   8.175043E-05
    @Boys   35   2.0155984886548275E+00   1.065275E-04
    @Boys   36   2.0158648091590350E+00   1.321297E-04
    @Boys   37   2.0160406330331200E+00   8.722007E-05
    @Boys   38   2.0161723201496531E+00   6.531967E-05
    @Boys   39   2.0163656795400744E+00   9.590420E-05
    @Boys   40   2.0165185315279439E+00   7.580569E-05
    @Boys   41   2.0166566463795430E+00   6.849173E-05
    @Boys   42   2.0168115260669968E+00   7.680023E-05
    @Boys   43   2.0168925043393617E+00   4.015163E-05
    @Boys   44   2.0170136828999228E+00   6.008181E-05
    @Boys   45   2.0171037021530811E+00   4.462997E-05
    @Boys   46   2.0171687865205703E+00   3.226625E-05
    @Boys   47   2.0172369014531015E+00   3.376759E-05
    @Boys   48   2.0173277717275218E+00   4.504690E-05
    @Boys   49   2.0173772061551527E+00   2.450491E-05
    @Boys   50   2.0174206441425415E+00   2.153191E-05

    Boys Localizer failed.

  ==> Boys Localizer <==

    Convergence =   1.000E-08
    Maxiter     =          50

    Iteration                   Metric       Residual
    @Boys    0   1.8927765179410784E+01              -
    @Boys    1   5.8974630268467237E+01   2.115774E+00
    @Boys    2   5.8974630268467237E+01   0.000000E+00

    Boys Localizer converged.

  ## MO coefficients (C) (Symmetry 0) ##
  Irrep: 1 Size: 7 x 7

                 1                   2                   3                   4                   5

    1     1.01598473209805     0.08212722521593     0.08223972865423     0.08241970937545     0.08263538814334
    2    -0.08045842954283    -0.51128741448040    -0.51219190241615    -0.51368887759685    -0.51503473716818
    3     0.00007191040643    -0.40013995675239    -0.59299077497830     0.49529041030752     0.49290611263514
    4     0.00000097235326    -0.01345758770320     0.00866102409194    -0.70556196869574     0.70846747797379
    5     0.00003318674715    -0.76730723727134     0.63034605959961     0.07883152101288     0.05622696526818
    6     0.00002523825929     0.03142286534887    -0.02472479525196    -0.00346528413933    -0.00240736806524
    7     0.00002791229213    -0.03040230666504     0.02606483904364     0.00288650342441     0.00212307539634

                 6                   7

    1    -0.00149614144920     0.00149614158177
    2     0.00739616941308    -0.00739617000834
    3     0.00544468641916    -0.00544468642905
    4     0.00010241483529    -0.00010241479662
    5     0.04826144455702     0.04826144461185
    6    -0.00070766880359     0.99927213817764
    7    -0.99927213817961     0.00070766880073





        *******************************************************
        *                                                     *
        *    v2RDM-DOCI                                       *
        *                                                     *
        *    A variational 2-RDM-driven approach to the       *
        *    doubles only configuration interaction method    *
        *                                                     *
        *******************************************************

  ==> Convergence parameters <==

        r_convergence:                      1.000e-06
        e_convergence:                      1.000e-05
        cg_convergence:                     1.000e-09
        maxiter:                              1000000
        cg_maxiter:                             10000

  ==> Active space details <==

        Number of frozen core orbitals:             0
        Number of restricted occupied orbitals:     0
        Number of active occupied orbitals:         5
        Number of active virtual orbitals:          2
        Number of restricted virtual orbitals:      0
        Number of frozen virtual orbitals:          0

        Irrep:              A 
 
        frozen_docc     [   0 ]
        restricted_docc [   0 ]
        active          [   7 ]
        restricted_uocc [   0 ]
        frozen_uocc     [   0 ]

  ==> Orbital optimization parameters <==

        1-step algorithm:                   false
        g_convergence:                  1.000e-04
        e_convergence:                  1.000e-06
        maximum iterations:                   500
        frequency:                            500
        active-active rotations:             true
        exact diagonal Hessian:              true
        number of DIIS vectors:                 0
        print iteration info:               false

  ==> Memory requirements <==

        D2:                          0.00 mb
        Q2:                          0.00 mb
        G2:                          0.00 mb

        Total number of variables:           1806
        Total number of constraints:         1774
        Total memory requirements:        0.35 mb

    ==> Transform three-electron integrals <==


        Time for integral transformation:     0.04 s

    Molecular point group: c1
    Full point group: C2v

    Geometry (in Angstrom), charge = 0, multiplicity = 1:

       Center              X                  Y                   Z               Mass       
    ------------   -----------------  -----------------  -----------------  -----------------
         O            0.000000000000     0.000000000000    -0.205548657931    15.994914619560
         H            0.000000000000    -2.372068721232     1.631103182173     1.007825032070
         H            0.000000000000     2.372068721232     1.631103182173     1.007825032070

  -AO BASIS SET INFORMATION:
    Name                   = STO-3G
    Blend                  = STO-3G
    Total number of shells = 5
    Number of primitives   = 15
    Number of AO           = 7
    Number of SO           = 7
    Maximum AM             = 1
    Spherical Harmonics    = TRUE

  -Contraction Scheme:
    Atom   Type   All Primitives // Shells:
   ------ ------ --------------------------
       1     O     6s 3p // 2s 1p 
       2     H     3s // 1s 
       3     H     3s // 1s 

  ==> AO Basis Functions <==

    [ STO-3G ]
    spherical
    ****
    O   1
    S   3 1.00
                       130.70932000           0.15432897
                        23.80886100           0.53532814
                         6.44360830           0.44463454
    S   3 1.00
                         5.03315130          -0.09996723
                         1.16959610           0.39951283
                         0.38038900           0.70011547
    P   3 1.00
                         5.03315130           0.15591627
                         1.16959610           0.60768372
                         0.38038900           0.39195739
    ****
    H   2
    S   3 1.00
                         3.42525091           0.15432897
                         0.62391373           0.53532814
                         0.16885540           0.44463454
    ****
    H   3
    S   3 1.00
                         3.42525091           0.15432897
                         0.62391373           0.53532814
                         0.16885540           0.44463454
    ****


    reference energy:           0.000000000000
    frozen core energy:         0.000000000000
    initial 2-RDM energy:       4.154507503542

      oiter iiter        E(p)        E(d)      E gap)      mu     eps(p)     eps(d)
          0    18  -80.913300   85.099965  166.013265   1.000   0.022194   0.307508
          1    19  -96.026981  -65.347001   30.679980   1.000   0.067154   0.065183
          2    18  -98.034113  -74.321703   23.712410   1.000   0.073700   0.010077
          3    15  -90.666699  -82.226353    8.440346   1.000   0.049586   0.026012
          4    16  -82.273378  -81.320827    0.952551   1.000   0.026500   0.031073
          5    18  -76.805078  -77.489075    0.683997   1.000   0.016434   0.023325
          6    19  -74.279753  -74.875974    0.596221   1.000   0.012246   0.014780
          7    15  -73.416527  -73.804577    0.388050   1.000   0.009500   0.008800
          8    18  -73.272794  -73.404261    0.131467   1.000   0.008106   0.005313
          9    18  -73.395782  -73.220410    0.175372   1.000   0.007562   0.003777
         10    19  -73.593481  -73.121823    0.471658   1.000   0.007263   0.003499
         11    18  -73.787431  -73.067235    0.720197   1.000   0.006996   0.003677
         12    16  -73.948702  -73.034717    0.913985   1.000   0.006188   0.004043
         13    18  -74.028345  -73.046479    0.981865   1.000   0.003664   0.006110
         14    19  -73.829499  -73.238090    0.591409   1.000   0.001930   0.004679
         15    17  -73.644289  -73.225352    0.418937   1.000   0.001962   0.003833
         16    16  -73.535508  -73.166790    0.368718   1.000   0.002130   0.003591
         17    16  -73.486935  -73.116591    0.370344   1.000   0.002243   0.003435
         18    16  -73.471972  -73.081357    0.390615   1.000   0.002351   0.003302
         19    16  -73.472071  -73.056591    0.415480   1.000   0.002158   0.003202
         20    17  -73.472029  -73.062428    0.409601   1.000   0.002120   0.003120
         21    19  -73.469584  -73.081772    0.387812   1.000   0.002290   0.002788
         22    15  -73.465528  -73.104133    0.361395   1.000   0.002390   0.002645
         23    16  -73.462437  -73.127262    0.335175   1.000   0.002390   0.002589
         24    16  -73.461063  -73.148486    0.312577   1.000   0.002290   0.002625
         25    16  -73.461045  -73.166054    0.294991   1.000   0.002109   0.002724
         26    17  -73.461624  -73.178412    0.283213   1.000   0.001884   0.002841
         27    17  -73.462112  -73.184537    0.277575   1.000   0.001661   0.002938
         28    17  -73.466033  -73.184144    0.281889   1.000   0.001599   0.002979
         29    17  -73.484184  -73.183139    0.301045   1.000   0.003438   0.002923
         30    18  -73.491200  -73.203147    0.288053   1.000   0.005666   0.002694
         31    18  -73.491936  -73.226802    0.265133   1.000   0.007693   0.002349
         32    18  -73.489380  -73.254697    0.234682   1.000   0.009217   0.001763
         33    18  -73.486237  -73.338429    0.147808   1.000   0.009879   0.001005
         34    19  -73.479513  -73.417576    0.061936   1.000   0.009731   0.000741
         35    18  -73.469191  -73.461599    0.007592   1.000   0.009102   0.000945
         36    19  -73.458318  -73.467551    0.009233   1.000   0.008360   0.001036
         37    18  -73.450557  -73.446734    0.003823   1.000   0.007763   0.000989
         38    16  -73.448062  -73.416765    0.031297   1.000   0.007414   0.000958
         39    19  -73.450603  -73.393892    0.056710   1.000   0.007127   0.001111
         40    18  -73.456948  -73.424588    0.032360   1.000   0.006673   0.001215
         41    16  -73.461951  -73.476119    0.014168   1.000   0.005977   0.001265
         42    19  -73.462552  -73.508425    0.045873   1.000   0.005121   0.001358
         43    18  -73.460823  -73.535911    0.075088   1.000   0.004154   0.001443
         44    15  -73.458983  -73.557212    0.098229   1.000   0.002807   0.001713
         45    17  -73.433476  -73.587560    0.154084   1.000   0.001421   0.001659
         46    17  -73.405138  -73.598195    0.193056   1.000   0.000516   0.001575
         47    18  -73.394667  -73.588660    0.193994   1.000   0.001374   0.001518
         48    16  -73.397416  -73.574435    0.177019   1.000   0.002347   0.001448
         49    18  -73.407192  -73.556341    0.149150   1.000   0.003145   0.001361
         50    16  -73.418741  -73.534993    0.116252   1.000   0.003751   0.001257
         51    18  -73.429131  -73.510518    0.081387   1.000   0.004154   0.001154
         52    18  -73.437490  -73.483882    0.046392   1.000   0.004342   0.001079
         53    18  -73.444286  -73.456368    0.012083   1.000   0.004307   0.001052
         54    18  -73.450295  -73.429656    0.020639   1.000   0.004055   0.001073
         55    19  -73.455994  -73.405516    0.050477   1.000   0.003600   0.001129
         56    16  -73.461350  -73.385813    0.075537   1.000   0.002974   0.001200
         57    16  -73.465976  -73.371231    0.094745   1.000   0.002222   0.001264
         58    16  -73.469399  -73.362724    0.106675   1.000   0.001392   0.001307
         59    16  -73.471261  -73.360347    0.110915   1.000   0.000546   0.001323
         60    17  -73.471449  -73.363698    0.107751   1.000   0.000352   0.001309
         61    16  -73.470127  -73.372175    0.097952   1.000   0.001007   0.001093
         62    19  -73.465437  -73.425325    0.040112   1.000   0.001153   0.000736
         63    18  -73.454399  -73.480062    0.025663   1.000   0.000739   0.000679
         64    14  -73.441282  -73.502404    0.061122   1.000   0.000347   0.000763
         65    18  -73.430646  -73.495551    0.064905   1.000   0.000762   0.000717
         66    16  -73.424667  -73.473638    0.048971   1.000   0.001158   0.000612
         67    18  -73.422977  -73.450952    0.027975   1.000   0.001364   0.000550
         68    17  -73.423851  -73.435543    0.011691   1.000   0.001452   0.000526
         69    18  -73.425412  -73.428826    0.003414   1.000   0.001505   0.000495
         70    18  -73.426485  -73.427711    0.001226   1.000   0.001568   0.000449
         71    19  -73.426686  -73.427808    0.001122   1.000   0.001648   0.000407
         72    18  -73.426227  -73.426075    0.000153   1.000   0.001729   0.000379
         73    16  -73.425505  -73.421290    0.004215   1.000   0.001788   0.000363
         74    18  -73.424852  -73.414131    0.010721   1.000   0.001808   0.000357
         75    18  -73.424410  -73.405955    0.018456   1.000   0.001782   0.000363
         76    18  -73.424169  -73.398243    0.025926   1.000   0.001711   0.000381
         77    17  -73.424026  -73.391812    0.032214   1.000   0.001603   0.000406
         78    18  -73.423874  -73.386878    0.036996   1.000   0.001467   0.000434
         79    18  -73.423676  -73.383240    0.040436   1.000   0.001312   0.000462
         80    16  -73.423436  -73.380570    0.042866   1.000   0.001140   0.000488
         81    18  -73.423197  -73.378580    0.044617   1.000   0.000956   0.000511
         82    16  -73.423017  -73.377114    0.045903   1.000   0.000761   0.000530
         83    18  -73.422935  -73.376168    0.046767   1.000   0.000557   0.000543
         84    16  -73.422994  -73.375805    0.047189   1.000   0.000349   0.000551
         85    17  -73.423200  -73.376054    0.047146   1.000   0.000144   0.000554
         86    16  -73.423549  -73.376906    0.046644   1.000   0.000093   0.000551
         87    18  -73.424043  -73.378300    0.045743   1.000   0.000284   0.000542
         88    18  -73.424666  -73.380150    0.044516   1.000   0.000475   0.000529
         89    18  -73.425403  -73.382382    0.043021   1.000   0.000653   0.000511
         90    18  -73.426238  -73.384920    0.041318   1.000   0.000817   0.000489
         91    16  -73.427145  -73.387708    0.039438   1.000   0.000962   0.000465
         92    16  -73.428116  -73.390744    0.037373   1.000   0.001088   0.000440
         93    18  -73.429116  -73.394016    0.035100   1.000   0.001192   0.000415
         94    18  -73.430120  -73.397489    0.032631   1.000   0.001273   0.000392
         95    18  -73.431109  -73.401136    0.029972   1.000   0.001330   0.000374
         96    18  -73.432058  -73.404940    0.027117   1.000   0.001362   0.000362
         97    18  -73.432953  -73.408830    0.024123   1.000   0.001369   0.000356
         98    18  -73.433787  -73.412765    0.021022   1.000   0.001352   0.000358
         99    18  -73.434548  -73.416668    0.017880   1.000   0.001311   0.000366
        100    16  -73.435234  -73.420475    0.014760   1.000   0.001248   0.000379
        101    18  -73.435850  -73.424109    0.011741   1.000   0.001163   0.000396
        102    16  -73.436391  -73.427496    0.008894   1.000   0.001060   0.000414
        103    18  -73.436865  -73.430577    0.006288   1.000   0.000939   0.000432
        104    18  -73.437271  -73.433267    0.004004   1.000   0.000803   0.000449
        105    18  -73.437615  -73.435510    0.002105   1.000   0.000656   0.000464
        106    18  -73.437898  -73.437252    0.000646   1.000   0.000499   0.000475
        107    16  -73.438122  -73.438459    0.000337   1.000   0.000337   0.000482
        108    15  -73.438289  -73.439103    0.000815   1.000   0.000172   0.000486
        109    17  -73.438401  -73.439167    0.000766   1.000   0.000017   0.000485
        110    18  -73.438456  -73.438683    0.000228   1.000   0.000158   0.000480
        111    16  -73.438451  -73.437666    0.000785   1.000   0.000314   0.000471
        112    18  -73.438394  -73.436144    0.002250   1.000   0.000461   0.000460
        113    18  -73.438280  -73.434171    0.004109   1.000   0.000597   0.000445
        114    17  -73.438122  -73.431802    0.006320   1.000   0.000720   0.000429
        115    18  -73.437697  -73.429317    0.008380   1.000   0.000828   0.000407
        116    18  -73.436853  -73.427461    0.009392   1.000   0.000923   0.000376
        117    18  -73.436078  -73.427213    0.008866   1.000   0.001001   0.000329
        118    19  -73.435540  -73.428362    0.007178   1.000   0.001063   0.000279
        119    18  -73.435164  -73.430106    0.005057   1.000   0.001107   0.000233
        120    15  -73.434840  -73.431782    0.003058   1.000   0.001133   0.000201
        121    19  -73.434499  -73.432960    0.001539   1.000   0.001141   0.000190
        122    18  -73.434129  -73.433359    0.000770   1.000   0.001131   0.000197
        123    19  -73.433753  -73.432862    0.000890   1.000   0.001103   0.000214
        124    18  -73.433400  -73.431482    0.001919   1.000   0.001058   0.000232
        125    18  -73.433099  -73.429336    0.003764   1.000   0.000996   0.000250
        126    17  -73.432864  -73.426609    0.006255   1.000   0.000919   0.000266
        127    16  -73.432703  -73.423515    0.009188   1.000   0.000826   0.000282
        128    18  -73.432621  -73.420335    0.012286   1.000   0.000720   0.000297
        129    16  -73.432626  -73.417342    0.015284   1.000   0.000603   0.000312
        130    16  -73.432713  -73.414736    0.017977   1.000   0.000475   0.000325
        131    18  -73.432891  -73.412723    0.020168   1.000   0.000343   0.000334
        132    16  -73.433164  -73.411421    0.021743   1.000   0.000212   0.000338
        133    14  -73.433529  -73.410875    0.022653   1.000   0.000108   0.000336
        134    18  -73.433976  -73.411067    0.022909   1.000   0.000134   0.000328
        135    16  -73.434497  -73.411920    0.022577   1.000   0.000244   0.000316
        136    12  -73.435103  -73.413595    0.021508   1.000   0.000362   0.000299
        137    16  -73.435788  -73.415964    0.019825   1.000   0.000472   0.000276
        138    16  -73.436465  -73.418168    0.018297   1.000   0.000571   0.000255
        139    18  -73.437309  -73.420976    0.016333   1.000   0.000659   0.000231
        140    16  -73.438030  -73.423255    0.014776   1.000   0.000733   0.000208
        141    15  -73.438616  -73.425381    0.013235   1.000   0.000791   0.000187
        142    18  -73.439087  -73.427333    0.011754   1.000   0.000834   0.000169
        143    18  -73.439492  -73.429101    0.010391   1.000   0.000862   0.000155
        144    18  -73.439846  -73.430714    0.009132   1.000   0.000875   0.000146
        145    18  -73.440149  -73.432198    0.007951   1.000   0.000870   0.000148
        146    18  -73.440332  -73.433878    0.006454   1.000   0.000852   0.000158
        147    18  -73.439462  -73.436470    0.002992   1.000   0.000822   0.000156
        148    18  -73.439072  -73.438044    0.001028   1.000   0.000779   0.000167
        149    18  -73.438927  -73.439660    0.000733   1.000   0.000722   0.000181
        150    18  -73.438894  -73.441146    0.002252   1.000   0.000653   0.000196
        151    18  -73.438893  -73.442445    0.003552   1.000   0.000574   0.000210
        152    18  -73.438896  -73.443560    0.004664   1.000   0.000486   0.000223
        153    18  -73.438900  -73.444525    0.005625   1.000   0.000392   0.000234
        154    18  -73.438917  -73.445358    0.006441   1.000   0.000294   0.000243
        155    16  -73.438954  -73.446056    0.007102   1.000   0.000192   0.000248
        156    16  -73.439006  -73.446583    0.007577   1.000   0.000089   0.000249
        157    16  -73.439062  -73.446909    0.007847   1.000   0.000029   0.000248
        158    19  -73.439109  -73.446960    0.007852   1.000   0.000121   0.000243
        159    16  -73.439122  -73.446744    0.007623   1.000   0.000218   0.000235
        160    16  -73.438969  -73.446345    0.007375   1.000   0.000311   0.000224
        161    16  -73.438740  -73.445636    0.006896   1.000   0.000396   0.000211
        162    16  -73.438467  -73.444656    0.006189   1.000   0.000472   0.000196
        163    18  -73.438166  -73.443414    0.005249   1.000   0.000538   0.000180
        164    18  -73.437840  -73.441935    0.004095   1.000   0.000594   0.000164
        165    17  -73.437488  -73.440238    0.002750   1.000   0.000637   0.000149
        166    18  -73.437109  -73.438361    0.001252   1.000   0.000669   0.000136
        167    18  -73.436716  -73.436360    0.000356   1.000   0.000688   0.000126
        168    18  -73.436321  -73.434297    0.002024   1.000   0.000694   0.000121
        169    18  -73.435936  -73.432241    0.003694   1.000   0.000687   0.000120
        170    18  -73.435573  -73.430255    0.005318   1.000   0.000668   0.000125
        171    18  -73.435245  -73.428390    0.006855   1.000   0.000637   0.000133
        172    18  -73.434956  -73.426685    0.008271   1.000   0.000596   0.000144
        173    18  -73.434720  -73.425183    0.009537   1.000   0.000544   0.000156
        174    16  -73.434543  -73.423902    0.010640   1.000   0.000484   0.000168
        175    18  -73.434428  -73.422852    0.011576   1.000   0.000417   0.000179
        176    16  -73.434381  -73.422044    0.012337   1.000   0.000344   0.000188
        177    18  -73.434400  -73.421467    0.012933   1.000   0.000267   0.000195
        178    16  -73.434486  -73.421117    0.013369   1.000   0.000187   0.000200
        179    18  -73.434635  -73.420987    0.013648   1.000   0.000106   0.000203
        180    16  -73.434853  -73.421123    0.013730   1.000   0.000028   0.000203
        181    16  -73.435125  -73.421462    0.013663   1.000   0.000060   0.000201
        182    18  -73.435431  -73.421962    0.013469   1.000   0.000136   0.000196
        183    18  -73.435763  -73.422610    0.013153   1.000   0.000208   0.000189
        184    16  -73.436110  -73.423390    0.012720   1.000   0.000275   0.000180
        185    18  -73.436467  -73.424294    0.012173   1.000   0.000336   0.000170
        186    16  -73.436827  -73.425301    0.011527   1.000   0.000390   0.000160
        187    18  -73.437180  -73.426411    0.010769   1.000   0.000435   0.000149
        188    18  -73.437524  -73.427599    0.009925   1.000   0.000472   0.000138
        189    18  -73.437851  -73.428854    0.008997   1.000   0.000499   0.000128
        190    18  -73.438160  -73.430162    0.007998   1.000   0.000517   0.000121
        191    18  -73.438447  -73.431503    0.006944   1.000   0.000525   0.000117
        192    16  -73.438712  -73.432859    0.005853   1.000   0.000524   0.000116
        193    18  -73.438955  -73.434209    0.004746   1.000   0.000513   0.000118
        194    18  -73.439174  -73.435529    0.003645   1.000   0.000493   0.000123
        195    18  -73.439368  -73.436792    0.002576   1.000   0.000465   0.000129
        196    18  -73.439538  -73.437973    0.001565   1.000   0.000428   0.000137
        197    18  -73.439682  -73.439044    0.000638   1.000   0.000385   0.000145
        198    16  -73.439800  -73.439981    0.000181   1.000   0.000336   0.000153
        199    18  -73.439887  -73.440769    0.000882   1.000   0.000282   0.000160
        200    15  -73.439947  -73.441372    0.001425   1.000   0.000223   0.000166
        201    16  -73.439976  -73.441827    0.001851   1.000   0.000163   0.000170
        202    15  -73.439973  -73.442068    0.002095   1.000   0.000100   0.000172
        203    17  -73.439937  -73.442137    0.002200   1.000   0.000038   0.000173
        204    16  -73.439869  -73.442019    0.002150   1.000   0.000029   0.000171
        205    19  -73.439770  -73.441729    0.001959   1.000   0.000088   0.000169
        206    16  -73.439642  -73.441293    0.001651   1.000   0.000145   0.000164
        207    16  -73.439485  -73.440708    0.001223   1.000   0.000199   0.000159
        208    16  -73.439308  -73.440004    0.000697   1.000   0.000248   0.000152
        209    18  -73.439110  -73.439200    0.000090   1.000   0.000291   0.000145
        210    16  -73.438899  -73.438319    0.000579   1.000   0.000328   0.000138
        211    18  -73.438678  -73.437376    0.001301   1.000   0.000359   0.000131
        212    16  -73.438453  -73.436396    0.002057   1.000   0.000383   0.000124
        213    16  -73.438234  -73.435393    0.002842   1.000   0.000399   0.000119
        214    18  -73.438020  -73.434386    0.003634   1.000   0.000407   0.000116
        215    18  -73.437820  -73.433389    0.004431   1.000   0.000409   0.000114
        216    16  -73.437638  -73.432417    0.005221   1.000   0.000403   0.000115
        217    16  -73.437479  -73.431483    0.005996   1.000   0.000390   0.000117
        218    18  -73.437345  -73.430600    0.006745   1.000   0.000370   0.000121
        219    14  -73.437246  -73.429804    0.007442   1.000   0.000344   0.000126
        220    17  -73.437185  -73.429136    0.008049   1.000   0.000313   0.000131
        221    16  -73.437153  -73.428555    0.008599   1.000   0.000277   0.000136
        222    16  -73.437134  -73.427998    0.009135   1.000   0.000237   0.000141
        223    16  -73.437143  -73.427525    0.009617   1.000   0.000194   0.000145
        224    16  -73.437178  -73.427154    0.010023   1.000   0.000148   0.000148
        225    16  -73.437242  -73.426890    0.010352   1.000   0.000101   0.000151
        226    16  -73.437331  -73.426745    0.010586   1.000   0.000053   0.000151
        227    17  -73.437441  -73.426698    0.010743   1.000   0.000007   0.000151
        228    18  -73.437569  -73.426776    0.010793   1.000   0.000043   0.000150
        229    16  -73.437710  -73.426958    0.010752   1.000   0.000088   0.000147
        230    16  -73.437864  -73.427249    0.010615   1.000   0.000131   0.000144
        231    18  -73.438026  -73.427643    0.010383   1.000   0.000170   0.000140
        232    14  -73.438197  -73.428134    0.010063   1.000   0.000206   0.000135
        233    18  -73.438372  -73.428713    0.009660   1.000   0.000237   0.000130
        234    16  -73.438549  -73.429378    0.009171   1.000   0.000263   0.000126
        235    16  -73.438732  -73.430117    0.008615   1.000   0.000284   0.000121
        236    16  -73.438912  -73.430923    0.007989   1.000   0.000299   0.000118
        237    18  -73.439092  -73.431763    0.007329   1.000   0.000309   0.000115
        238    14  -73.439264  -73.432617    0.006646   1.000   0.000313   0.000114
        239    16  -73.439425  -73.433467    0.005958   1.000   0.000311   0.000114
        240    16  -73.439568  -73.434296    0.005272   1.000   0.000303   0.000115
        241    18  -73.439699  -73.435088    0.004611   1.000   0.000290   0.000117
        242    16  -73.439812  -73.435827    0.003986   1.000   0.000272   0.000120
        243    18  -73.439908  -73.436500    0.003408   1.000   0.000249   0.000123
        244    16  -73.439985  -73.437095    0.002891   1.000   0.000223   0.000126
        245    18  -73.440042  -73.437606    0.002436   1.000   0.000193   0.000129
        246    16  -73.440078  -73.438021    0.002057   1.000   0.000160   0.000132
        247    16  -73.440095  -73.438339    0.001757   1.000   0.000125   0.000134
        248    15  -73.440091  -73.438552    0.001539   1.000   0.000088   0.000136
        249    16  -73.440069  -73.438675    0.001394   1.000   0.000051   0.000137
        250    15  -73.440028  -73.438696    0.001332   1.000   0.000015   0.000137
        251    18  -73.439972  -73.438614    0.001358   1.000   0.000025   0.000136
        252    16  -73.439901  -73.438442    0.001459   1.000   0.000060   0.000135
        253    16  -73.439819  -73.438182    0.001636   1.000   0.000094   0.000133
        254    18  -73.439726  -73.437840    0.001886   1.000   0.000126   0.000130
        255    16  -73.439626  -73.437423    0.002203   1.000   0.000154   0.000128
        256    18  -73.439521  -73.436939    0.002582   1.000   0.000179   0.000125
        257    16  -73.439414  -73.436400    0.003015   1.000   0.000201   0.000122
        258    18  -73.439308  -73.435812    0.003496   1.000   0.000218   0.000119
        259    16  -73.439204  -73.435190    0.004014   1.000   0.000231   0.000117
        260    18  -73.439105  -73.434543    0.004562   1.000   0.000240   0.000115
        261    16  -73.439013  -73.433887    0.005126   1.000   0.000244   0.000114
        262    16  -73.438932  -73.433231    0.005702   1.000   0.000244   0.000114
        263    18  -73.438860  -73.432589    0.006271   1.000   0.000239   0.000114
        264    16  -73.438800  -73.431974    0.006827   1.000   0.000230   0.000115
        265    18  -73.438756  -73.431394    0.007362   1.000   0.000218   0.000117
        266    16  -73.438725  -73.430864    0.007860   1.000   0.000201   0.000118
        267    16  -73.438709  -73.430393    0.008317   1.000   0.000181   0.000120
        268    16  -73.438710  -73.429990    0.008719   1.000   0.000159   0.000123
        269    16  -73.438724  -73.429646    0.009079   1.000   0.000134   0.000124
        270    16  -73.438756  -73.429386    0.009370   1.000   0.000107   0.000126
        271    16  -73.438803  -73.429204    0.009599   1.000   0.000080   0.000127
        272    16  -73.438865  -73.429103    0.009763   1.000   0.000051   0.000128
        273    16  -73.438941  -73.429085    0.009856   1.000   0.000022   0.000128
        274    18  -73.439030  -73.429141    0.009888   1.000   0.000009   0.000128
        275    18  -73.439129  -73.429275    0.009854   1.000   0.000035   0.000127
        276    16  -73.439239  -73.429477    0.009762   1.000   0.000062   0.000126
        277    16  -73.439356  -73.429743    0.009613   1.000   0.000087   0.000124
        278    18  -73.439479  -73.430067    0.009412   1.000   0.000109   0.000123
        279    15  -73.439608  -73.430439    0.009168   1.000   0.000130   0.000121
        280    17  -73.439739  -73.430855    0.008884   1.000   0.000147   0.000119
        281    16  -73.439869  -73.431303    0.008566   1.000   0.000161   0.000117
        282    16  -73.440000  -73.431776    0.008224   1.000   0.000172   0.000116
        283    16  -73.440127  -73.432264    0.007863   1.000   0.000180   0.000114
        284    18  -73.440249  -73.432760    0.007489   1.000   0.000184   0.000114
        285    14  -73.440365  -73.433252    0.007113   1.000   0.000185   0.000113
        286    18  -73.440472  -73.433739    0.006734   1.000   0.000183   0.000113
        287    16  -73.440570  -73.434203    0.006367   1.000   0.000177   0.000114
        288    16  -73.440656  -73.434644    0.006011   1.000   0.000168   0.000115
        289    18  -73.440733  -73.435053    0.005680   1.000   0.000157   0.000116
        290    16  -73.440795  -73.435422    0.005373   1.000   0.000142   0.000117
        291    16  -73.440845  -73.435748    0.005097   1.000   0.000126   0.000118
        292    15  -73.440882  -73.436021    0.004861   1.000   0.000108   0.000120
[...]
         -0.083000903977       0.000000000000
         -0.083365545417       0.000000000000

info:     0
General_solver
      0.123000564314
          0.600000000000
    ==> excitation energies <==

                 Re(eig)             Im(eig)

        114.807384868506       0.000000000000
        114.557745085526       0.000000000000
       -114.557745085526       0.000000000000
       -114.807384868506       0.000000000000
         62.824713303696       0.000000000000
        -62.824713303696       0.000000000000
        -62.746306473512       0.000000000000
         62.746306473512       0.000000000000
         22.567985081446       0.000000000000
         22.004188687209       0.000000000000
        -22.567985081777       0.000000000000
        -22.004188694870       0.000000000000
        -20.311619373857       0.000000000000
        -20.311291816120       0.000000000000
        -19.356610176141       0.000000000000
        -19.356969583623       0.000000000000
         19.356610176141       0.000000000000
         19.356969583623       0.000000000000
         20.311619373857       0.000000000000
         20.311291816120       0.000000000000
          3.738063436509       0.000000000000
         -3.738063466589       0.000000000000
         -1.258257966187       0.000000000000
         -1.257471919411       0.000000000000
          1.258257966187       0.000000000000
          1.257471919410       0.000000000000
         -0.643220300959       0.000000000000
         -0.643916836300       0.000000000000
         -0.672902628758       0.000000000000
         -0.673255041163       0.000000000000
          0.672902628758       0.000000000000
          0.673255041163       0.000000000000
          0.643220300959       0.000000000000
          0.643916836300       0.000000000000
         -0.132558752775       0.000000000000
         -0.095445854526       0.000000000000
          0.132558752775       0.000000000000
          0.095445854526       0.000000000000
         -0.026508548473       0.000000000000
         -0.026147453830       0.000000000000
          0.026147453830       0.000000000000
          0.026508548473       0.000000000000

info:     0
General_solver
     -0.123008479277
          0.700000000000
    ==> excitation energies <==

                 Re(eig)             Im(eig)

        114.815872587483       0.000000000000
        114.563734805402       0.000000000000
       -114.563734805402       0.000000000000
       -114.815872587484       0.000000000000
         62.828326250055       0.000000000000
         62.750673132019       0.000000000000
        -62.828326250055       0.000000000000
        -62.750673132019       0.000000000000
         22.512815019908       0.000000000000
         21.980721048856       0.000000000000
        -22.512815020022       0.000000000000
        -21.980721056554       0.000000000000
        -20.333538567779       0.000000000000
        -20.333196049741       0.000000000000
        -19.411541350902       0.000000000000
        -19.411905045514       0.000000000000
         19.411541350902       0.000000000000
         19.411905045514       0.000000000000
         20.333538567779       0.000000000000
         20.333196049740       0.000000000000
          3.183248180524       0.000000000000
         -3.183248180289       0.000000000000
         -1.257697049204       0.000000000000
         -1.256696424867       0.000000000000
          1.257697049204       0.000000000000
          1.256696424867       0.000000000000
          0.896361921694       0.000000000000
          0.896735226375       0.000000000000
         -0.896361921694       0.000000000000
         -0.896735226375       0.000000000000
         -0.562004642042       0.000000000000
         -0.622645462733       0.000000000000
         -0.624141621441       0.000000000000
          0.562004642042       0.000000000000
          0.624141621441       0.000000000000
          0.622645462733       0.000000000000
          0.028835389792       0.000000000000
         -0.028835389792       0.000000000000
          0.066924340280       0.000000000000
          0.067301649633       0.000000000000
         -0.066924340280       0.000000000000
         -0.067301649633       0.000000000000

info:     0
General_solver
      0.123003484991
          0.700000000000
    ==> excitation energies <==

                 Re(eig)             Im(eig)

        114.806751524748       0.000000000000
        114.557274366660       0.000000000000
       -114.557274366660       0.000000000000
       -114.806751524748       0.000000000000
         62.824420652649       0.000000000000
        -62.824420652650       0.000000000000
        -62.745924535330       0.000000000000
         62.745924535330       0.000000000000
         22.560639631561       0.000000000000
         22.005320018199       0.000000000000
        -22.560639631524       0.000000000000
        -22.005320025853       0.000000000000
        -20.333518894297       0.000000000000
        -20.333172061928       0.000000000000
        -19.375716386868       0.000000000000
        -19.376079786669       0.000000000000
         19.375716386868       0.000000000000
         19.376079786669       0.000000000000
         20.333518894297       0.000000000000
         20.333172061928       0.000000000000
          3.737777760116       0.000000000000
         -3.737777737874       0.000000000000
         -1.257570625267       0.000000000000
         -1.256732394136       0.000000000000
          1.257570625267       0.000000000000
          1.256732394137       0.000000000000
         -0.621967400807       0.000000000000
         -0.622716781069       0.000000000000
         -0.654742033277       0.000000000000
         -0.655099579295       0.000000000000
         -0.100334526065       0.000000000000
         -0.099390444044       0.000000000000
          0.654742033277       0.000000000000
          0.655099579295       0.000000000000
          0.621967400807       0.000000000000
          0.622716781069       0.000000000000
          0.100334526065       0.000000000000
          0.099390444044       0.000000000000
          0.000568949548       0.000000000000
         -0.000938631119       0.000000000000
         -0.000568949548       0.000000000000
          0.000938631119       0.000000000000

info:     0
General_solver
     -0.123209300299
          0.800000000000
    ==> excitation energies <==

                 Re(eig)             Im(eig)

        114.816543216865       0.000000000000
        114.564187226579       0.000000000000
       -114.564187226579       0.000000000000
       -114.816543216865       0.000000000000
         62.828588043126       0.000000000000
         62.750965846099       0.000000000000
        -62.828588043126       0.000000000000
        -62.750965846099       0.000000000000
         22.497618634584       0.000000000000
         21.978166691495       0.000000000000
        -22.497618634525       0.000000000000
        -21.978166699180       0.000000000000
        -20.358755432339       0.000000000000
        -20.358384075888       0.000000000000
        -19.439236764898       0.000000000000
        -19.439605532781       0.000000000000
         19.439236764898       0.000000000000
         19.439605532781       0.000000000000
         20.358755432339       0.000000000000
         20.358384075888       0.000000000000
         -3.084546797680       0.000000000000
          3.084546797166       0.000000000000
         -1.256903416774       0.000000000000
         -1.255793119247       0.000000000000
          1.256903416774       0.000000000000
          1.255793119247       0.000000000000
         -0.912337456331       0.000000000000
         -0.912725161519       0.000000000000
         -0.587407349314       0.000000000000
         -0.607443879364       0.000000000000
         -0.598316002702       0.000000000000
          0.912337456331       0.000000000000
          0.912725161519       0.000000000000
          0.587407349315       0.000000000000
          0.607443879364       0.000000000000
          0.598316002702       0.000000000000
          0.022584302451       0.000000000000
         -0.022584302451       0.000000000000
          0.047708716728       0.000000000000
          0.048101640631       0.000000000000
         -0.047708716728       0.000000000000
         -0.048101640631       0.000000000000

info:     0
General_solver
      0.123009159571
          0.800000000000
    ==> excitation energies <==

                 Re(eig)             Im(eig)

        114.806121079745       0.000000000000
        114.556802103291       0.000000000000
       -114.556802103290       0.000000000000
       -114.806121079746       0.000000000000
         62.824125994384       0.000000000000
         62.745535773643       0.000000000000
        -62.824125994384       0.000000000000
        -62.745535773643       0.000000000000
         22.551609599223       0.000000000000
         22.006296253218       0.000000000000
        -22.551609599189       0.000000000000
        -22.006296261101       0.000000000000
        -20.358732222957       0.000000000000
        -20.358357859862       0.000000000000
        -19.398080904005       0.000000000000
        -19.398448947431       0.000000000000
         19.398080904005       0.000000000000
         19.398448947431       0.000000000000
         20.358732222957       0.000000000000
         20.358357859862       0.000000000000
          3.732300141677       0.000000000000
         -3.732300127371       0.000000000000
         -1.256743856507       0.000000000000
         -1.255891039738       0.000000000000
          1.256743856507       0.000000000000
          1.255891039739       0.000000000000
         -0.597531962067       0.000000000000
         -0.598317880576       0.000000000000
         -0.636449492717       0.000000000000
         -0.636812595506       0.000000000000
          0.636449492717       0.000000000000
          0.636812595506       0.000000000000
          0.597531962067       0.000000000000
          0.598317880576       0.000000000000
         -0.105216971717       0.000000000000
         -0.066216651497       0.000000000000
          0.105216971717       0.000000000000
          0.066216651497       0.000000000000
          0.027763163389       0.000000000000
          0.028145719578       0.000000000000
         -0.028145719578       0.000000000000
         -0.027763163389       0.000000000000

info:     0
General_solver
     -0.075862084517
          0.900000000000
    ==> excitation energies <==

                 Re(eig)             Im(eig)

        114.817216277171       0.000000000000
        114.564638547844       0.000000000000
       -114.564638547845       0.000000000000
       -114.817216277171       0.000000000000
         62.828847459014       0.000000000000
         62.751252528214       0.000000000000
        -62.828847459014       0.000000000000
        -62.751252528214       0.000000000000
         22.481008669320       0.000000000000
         21.975417263576       0.000000000000
        -22.481008669524       0.000000000000
        -21.975417271285       0.000000000000
        -20.387263283396       0.000000000000
        -20.386850976951       0.000000000000
        -19.470225503667       0.000000000000
        -19.470600192719       0.000000000000
         19.470225503667       0.000000000000
         19.470600192719       0.000000000000
         20.387263283396       0.000000000000
         20.386850976950       0.000000000000
          2.974276836955       0.000000000000
         -2.974276837030       0.000000000000
         -1.255990616452       0.000000000000
         -1.254758788692       0.000000000000
          1.255990616452       0.000000000000
          1.254758788692       0.000000000000
          0.928125571788       0.000000000000
          0.928530530808       0.000000000000
         -0.631498806216       0.000000000000
         -0.928125571788       0.000000000000
         -0.928530530808       0.000000000000
         -0.570804365020       0.000000000000
         -0.568885130338       0.000000000000
          0.631498806216       0.000000000000
          0.568885130337       0.000000000000
          0.570804365020       0.000000000000
         -0.015264101114       0.000000000000
          0.015264101114       0.000000000000
         -0.025778775755       0.000000000000
         -0.025366940362       0.000000000000
          0.025366940362       0.000000000000
          0.025778775755       0.000000000000

info:     0
General_solver
      0.123025325796
          0.900000000000
    ==> excitation energies <==

                 Re(eig)             Im(eig)

       -114.556328294824       0.000000000000
        114.805493525704       0.000000000000
        114.556328294824       0.000000000000
       -114.805493525703       0.000000000000
         62.823829327839       0.000000000000
        -62.823829327839       0.000000000000
        -62.745140175641       0.000000000000
         62.745140175641       0.000000000000
         22.540910816452       0.000000000000
         22.007082060938       0.000000000000
        -22.540910816467       0.000000000000
        -22.007082068492       0.000000000000
        -20.387236131628       0.000000000000
        -20.386822877061       0.000000000000
        -19.423678001714       0.000000000000
        -19.424051373179       0.000000000000
         19.423678001714       0.000000000000
         19.424051373179       0.000000000000
         20.387236131628       0.000000000000
         20.386822877060       0.000000000000
          3.721709486382       0.000000000000
         -3.721709474743       0.000000000000
         -1.255785907278       0.000000000000
         -1.254953945098       0.000000000000
          1.255785907278       0.000000000000
          1.254953945099       0.000000000000
         -0.618033534304       0.000000000000
         -0.618402521525       0.000000000000
         -0.569928486138       0.000000000000
         -0.570740514404       0.000000000000
          0.618033534304       0.000000000000
          0.618402521525       0.000000000000
          0.569928486138       0.000000000000
          0.570740514404       0.000000000000
          0.110094972211       0.000000000000
         -0.110094972211       0.000000000000
         -0.033038802338       0.000000000000
          0.033038802338       0.000000000000
          0.059980110332       0.000000000000
          0.059584885193       0.000000000000
         -0.059980110332       0.000000000000
         -0.059584885193       0.000000000000

info:     0
General_solver
     -0.075894657796
          1.000000000000
    ==> excitation energies <==

                 Re(eig)             Im(eig)

        114.817891768586       0.000000000000
        114.565088769941       0.000000000000
       -114.565088769941       0.000000000000
       -114.817891768586       0.000000000000
         62.829104497950       0.000000000000
         62.751533174759       0.000000000000
        -62.829104497950       0.000000000000
        -62.751533174759       0.000000000000
         22.463043805715       0.000000000000
         21.972423812971       0.000000000000
        -22.463043805729       0.000000000000
        -21.972423820679       0.000000000000
        -20.419035674043       0.000000000000
        -20.418567645062       0.000000000000
        -19.504480974414       0.000000000000
        -19.504862498152       0.000000000000
         19.504480974414       0.000000000000
         19.504862498152       0.000000000000
         20.419035674043       0.000000000000
         20.418567645062       0.000000000000
          2.850994756233       0.000000000000
         -2.850994756283       0.000000000000
         -1.254979521885       0.000000000000
         -1.253579596604       0.000000000000
          1.254979521885       0.000000000000
          1.253579596604       0.000000000000
          0.663757621260       0.000000000000
          0.943735889936       0.000000000000
          0.944160938329       0.000000000000
         -0.663757621260       0.000000000000
         -0.943735889936       0.000000000000
         -0.944160938329       0.000000000000
         -0.540127914065       0.000000000000
         -0.539005027955       0.000000000000
          0.539005027955       0.000000000000
          0.540127914065       0.000000000000
         -0.000280250765       0.000000000000
          0.000280250765       0.000000000000
         -0.000108685288       0.000000000000
          0.000108685288       0.000000000000
          0.000000000000       0.000089456822
<<<warning>>> excitation energy is complex:       0.000000000000 +       0.000089456822 I
          0.000000000000      -0.000089456822
<<<warning>>> excitation energy is complex:       0.000000000000 +      -0.000089456822 I

info:     0
General_solver
      0.114380763958
          1.000000000000
    ==> excitation energies <==

                 Re(eig)             Im(eig)

        114.804868855006       0.000000000000
        114.555852940668       0.000000000000
       -114.555852940668       0.000000000000
       -114.804868855006       0.000000000000
         62.823530651949       0.000000000000
        -62.823530651949       0.000000000000
        -62.744737728120       0.000000000000
         62.744737728120       0.000000000000
         22.528568304131       0.000000000000
         22.007632108577       0.000000000000
        -22.528568304115       0.000000000000
        -22.007632116298       0.000000000000
        -20.419004161997       0.000000000000
        -20.418537974320       0.000000000000
        -19.452479018683       0.000000000000
        -19.452858440091       0.000000000000
         19.452479018683       0.000000000000
         19.452858440091       0.000000000000
         20.419004161997       0.000000000000
         20.418537974320       0.000000000000
          3.706065931208       0.000000000000
         -3.706065911072       0.000000000000
         -1.254716320732       0.000000000000
         -1.253920020573       0.000000000000
          1.254716320732       0.000000000000
          1.253920020574       0.000000000000
         -0.599505467215       0.000000000000
         -0.599880548685       0.000000000000
         -0.539165292742       0.000000000000
         -0.540013034787       0.000000000000
          0.599505467215       0.000000000000
          0.599880548685       0.000000000000
          0.539165292742       0.000000000000
          0.540013034787       0.000000000000
         -0.114971929874       0.000000000000
          0.114971929874       0.000000000000
         -0.000000000000       0.000014098071
<<<warning>>> excitation energy is complex:      -0.000000000000 +       0.000014098071 I
         -0.000000000000      -0.000014098071
<<<warning>>> excitation energy is complex:      -0.000000000000 +      -0.000014098071 I
          0.094916765288       0.000000000000
          0.094507071025       0.000000000000
         -0.094916765288       0.000000000000
         -0.094507071025       0.000000000000

info:     0
General_solver
     -0.075934712808

    Reference energy                 -74.642317365439


    * AC correlation energy            0.011328171499
    * AC total energy                -74.630989193940


*** tstop() called on ed4 at Tue Dec  4 11:59:13 2018
Module time:
	user time   =       0.57 seconds =       0.01 minutes
	system time =       0.21 seconds =       0.00 minutes
	total time  =          2 seconds =       0.03 minutes
Total time:
	user time   =      14.34 seconds =       0.24 minutes
	system time =       0.36 seconds =       0.01 minutes
	total time  =         16 seconds =       0.27 minutes

    Psi4 stopped on: Tuesday, 04 December 2018 11:59AM
    Psi4 wall time for execution: 0:00:15.50

*** Psi4 exiting successfully. Buy a developer a beer!
