
    -----------------------------------------------------------------------
          Psi4: An Open-Source Ab Initio Electronic Structure Package
                               Psi4 1.2rc3.dev4 

                         Git: Rev {psi4_N} 0e159c1 dirty


    R. M. Parrish, L. A. Burns, D. G. A. Smith, A. C. Simmonett,
    A. E. DePrince III, E. G. Hohenstein, U. Bozkaya, A. Yu. Sokolov,
    R. Di Remigio, R. M. Richard, J. F. Gonthier, A. M. James,
    H. R. McAlexander, A. Kumar, M. Saitow, X. Wang, B. P. Pritchard,
    P. Verma, H. F. Schaefer III, K. Patkowski, R. A. King, E. F. Valeev,
    F. A. Evangelista, J. M. Turney, T. D. Crawford, and C. D. Sherrill,
    J. Chem. Theory Comput. 13(7) pp 3185--3197 (2017).
    (doi: 10.1021/acs.jctc.7b00174)

    -----------------------------------------------------------------------


    Psi4 started on: Wednesday, 07 November 2018 12:57PM

    Process ID: 31352
    Host:       ed4
    PSIDATADIR: /edfs/users/namvu/software/psi4_May_18/intel-release/share/psi4
    Memory:     500.0 MiB
    Threads:    2
    
  ==> Input File <==

--------------------------------------------------------------------------
# PYTHONPATH must include directory above plugin directory.
#     Define either externally or here, then import plugin.
sys.path.insert(0, '/edfs/users/namvu/chem')
import v2rdm_casscf
sys.path.insert(0, '/edfs/users/namvu/software')
import v2rdm_doci
sys.path.insert(0, '/edfs/users/namvu/chem/deprince-group/plugins')
import erpa

memory 8000 mb

molecule h4 {
 h
 h 1 R
 h 2 R 1 180.0
 h 3 R 2 180.0 1 180.0 
# h 4 R 3 180.0 2 180.0
# h 5 R 4 180.0 3 180.0
# h 6 R 5 180.0 4 180.0
# h 7 R 6 180.0 5 180.0
symmetry c1
}

Rvals=[0.6]

set {
  guess sad
  basis sto-3g
  scf_type df
  d_convergence 1e-8
  reference rhf
  maxiter 500
}
set v2rdm_doci {
  positivity dqgt2
  tpdm_write_full true
  r_convergence  1e-6
  e_convergence  1e-5
  maxiter 1000000
  orbopt_one_step true
}
set v2rdm_casscf {
 nat_orbs true
# tpdm_guess hf
# constrain_spin true
# cg_convergence 1e-6
}
# optimize_orbitals true
# orbopt_active_active_rotations false
# semicanonicalize_orbitals false
# mu_update_frequency 500
# restricted_docc  [ 0, 0, 0, 0, 0, 0, 0, 0 ]
# active           [ 2, 0, 0, 0, 0, 2, 0, 0 ]
# molden_write true

set erpa {
 pruning_threshold 1e-6
 spin_adapt_erpa true
 adiabatic_connection true
}
for R in Rvals:
   h4.R = R
   en, wfn = energy('v2rdm-doci',return_wfn=True)
   energy('erpa',ref_wfn=wfn)

--------------------------------------------------------------------------

  Memory set to   7.451 GiB by Python driver.
Molecule: geometry: Molecule is not complete, please use 'update_geometry'
                    once all variables are set.
Molecule: Setting geometry variable R to 0.600000

*** tstart() called on ed4
*** at Wed Nov  7 12:57:22 2018

   => Loading Basis Set <=

    Name: STO-3G
    Role: ORBITAL
    Keyword: BASIS
    atoms 1-4 entry H          line    19 file /edfs/users/namvu/software/psi4_May_18/intel-release/share/psi4/basis/sto-3g.gbs 

    There are an even number of electrons - assuming singlet.
    Specify the multiplicity in the molecule input block.


         ---------------------------------------------------------
                                   SCF
            by Justin Turney, Rob Parrish, Andy Simmonett
                             and Daniel Smith
                              RHF Reference
                        2 Threads,   7629 MiB Core
         ---------------------------------------------------------

  ==> Geometry <==

    Molecular point group: c1
    Full point group: D_inf_h

    Geometry (in Angstrom), charge = 0, multiplicity = 1:

       Center              X                  Y                   Z               Mass       
    ------------   -----------------  -----------------  -----------------  -----------------
         H            0.000000000000     0.000000000000    -0.900000000000     1.007825032070
         H            0.000000000000     0.000000000000    -0.300000000000     1.007825032070
         H            0.000000000000     0.000000000000     0.300000000000     1.007825032070
         H            0.000000000000     0.000000000000     0.900000000000     1.007825032070

  Running in c1 symmetry.

  Rotational constants: A = ************  B =      9.29263  C =      9.29263 [cm^-1]
  Rotational constants: A = ************  B = 278586.16819  C = 278586.16819 [MHz]
  Nuclear repulsion =    3.821835395372223

  Charge       = 0
  Multiplicity = 1
  Electrons    = 4
  Nalpha       = 2
  Nbeta        = 2

  ==> Algorithm <==

  SCF Algorithm Type is DF.
  DIIS enabled.
  MOM disabled.
  Fractional occupation disabled.
  Guess Type is SAD.
  Energy threshold   = 1.00e-08
  Density threshold  = 1.00e-08
  Integral threshold = 0.00e+00

  ==> Primary Basis <==

  Basis Set: STO-3G
    Blend: STO-3G
    Number of shells: 4
    Number of basis function: 4
    Number of Cartesian functions: 4
    Spherical Harmonics?: true
    Max angular momentum: 0

   => Loading Basis Set <=

    Name: (STO-3G AUX)
    Role: JKFIT
    Keyword: DF_BASIS_SCF
    atoms 1-4 entry H          line    23 file /edfs/users/namvu/software/psi4_May_18/intel-release/share/psi4/basis/def2-svp-jkfit.gbs 

  ==> Pre-Iterations <==

   -------------------------------------------------------
    Irrep   Nso     Nmo     Nalpha   Nbeta   Ndocc  Nsocc
   -------------------------------------------------------
     A          4       4       0       0       0       0
   -------------------------------------------------------
    Total       4       4       2       2       2       0
   -------------------------------------------------------

  ==> Integral Setup <==

  ==> DiskDFJK: Density-Fitted J/K Matrices <==

    J tasked:                  Yes
    K tasked:                  Yes
    wK tasked:                  No
    OpenMP threads:              2
    Integrals threads:           2
    Memory (MB):              5722
    Algorithm:                Core
    Integral Cache:           SAVE
    Schwarz Cutoff:          1E-12
    Fitting Condition:       1E-12

   => Auxiliary Basis Set <=

  Basis Set: (STO-3G AUX)
    Blend: DEF2-SVP-JKFIT
    Number of shells: 24
    Number of basis function: 72
    Number of Cartesian functions: 80
    Spherical Harmonics?: true
    Max angular momentum: 2

  Minimum eigenvalue in the overlap matrix is 7.4278809665E-02.
  Using Symmetric Orthogonalization.

  SCF Guess: Superposition of Atomic Densities via on-the-fly atomic UHF.

  ==> Iterations <==

                           Total Energy        Delta E     RMS |[F,P]|

   @DF-RHF iter   0:    -1.82175717201662   -1.82176e+00   6.55676e-02 
   @DF-RHF iter   1:    -1.92683097461497   -1.05074e-01   2.85216e-02 
   @DF-RHF iter   2:    -1.92959694655937   -2.76597e-03   3.36409e-03 DIIS
   @DF-RHF iter   3:    -1.92964743924741   -5.04927e-05   4.67017e-04 DIIS
   @DF-RHF iter   4:    -1.92964862991048   -1.19066e-06   4.26114e-07 DIIS
   @DF-RHF iter   5:    -1.92964862991116   -6.73683e-13   7.79413e-10 DIIS

  ==> Post-Iterations <==

    Orbital Energies [Eh]
    ---------------------

    Doubly Occupied:                                                      

       1A     -0.915554     2A     -0.441517  

    Virtual:                                                              

       3A      0.687480     4A      2.152898  

    Final Occupation by Irrep:
              A 
    DOCC [     2 ]

  Energy converged.

  @DF-RHF Final Energy:    -1.92964862991116

   => Energetics <=

    Nuclear Repulsion Energy =              3.8218353953722231
    One-Electron Energy =                  -8.7888248533515103
    Two-Electron Energy =                   3.0373408280681322
    Total Energy =                         -1.9296486299111550



Properties will be evaluated at   0.000000,   0.000000,   0.000000 [a0]

Properties computed using the SCF density matrix

  Nuclear Dipole Moment: [e a0]
     X:     0.0000      Y:     0.0000      Z:     0.0000

  Electronic Dipole Moment: [e a0]
     X:     0.0000      Y:     0.0000      Z:    -0.0000

  Dipole Moment: [e a0]
     X:     0.0000      Y:     0.0000      Z:    -0.0000     Total:     0.0000

  Dipole Moment: [D]
     X:     0.0000      Y:     0.0000      Z:    -0.0000     Total:     0.0000


*** tstop() called on ed4 at Wed Nov  7 12:57:23 2018
Module time:
	user time   =       0.76 seconds =       0.01 minutes
	system time =       0.03 seconds =       0.00 minutes
	total time  =          1 seconds =       0.02 minutes
Total time:
	user time   =       0.76 seconds =       0.01 minutes
	system time =       0.03 seconds =       0.00 minutes
	total time  =          1 seconds =       0.02 minutes

Reading options from the V2RDM_DOCI block
Calling plugin v2rdm_doci.so.



*** tstart() called on ed4
*** at Wed Nov  7 12:57:23 2018

  ==> Boys Localizer <==

    Convergence =   1.000E-08
    Maxiter     =          50

    Iteration                   Metric       Residual
    @Boys    0   1.2171055107552671E-25              -
    @Boys    1   2.7475472667653227E+00   2.257444E+25
    @Boys    2   2.7475472667653227E+00   0.000000E+00

    Boys Localizer converged.

  ==> Boys Localizer <==

    Convergence =   1.000E-08
    Maxiter     =          50

    Iteration                   Metric       Residual
    @Boys    0   1.6599221028421846E-25              -
    @Boys    1   2.7561405456636781E+00   1.660404E+25
    @Boys    2   2.7561405456636781E+00   0.000000E+00

    Boys Localizer converged.

  ## MO coefficients (C) (Symmetry 0) ##
  Irrep: 1 Size: 4 x 4

                 1                   2                   3                   4

    1     0.54696870570006     0.26980429929428     1.56847164536551     0.05812312326602
    2     0.57913250900352     0.01607765178545    -2.20112869215980    -1.08299416099327
    3    -0.01607765178530    -0.57913250900326     1.08299416099286     2.20112869216008
    4    -0.26980429929435    -0.54696870570037    -0.05812312326589    -1.56847164536540





        *******************************************************
        *                                                     *
        *    v2RDM-DOCI                                       *
        *                                                     *
        *    A variational 2-RDM-driven approach to the       *
        *    doubles only configuration interaction method    *
        *                                                     *
        *******************************************************

  ==> Convergence parameters <==

        r_convergence:                      1.000e-06
        e_convergence:                      1.000e-05
        cg_convergence:                     1.000e-09
        maxiter:                              1000000
        cg_maxiter:                             10000

  ==> Active space details <==

        Number of frozen core orbitals:             0
        Number of restricted occupied orbitals:     0
        Number of active occupied orbitals:         2
        Number of active virtual orbitals:          2
        Number of restricted virtual orbitals:      0
        Number of frozen virtual orbitals:          0

        Irrep:              A 
 
        frozen_docc     [   0 ]
        restricted_docc [   0 ]
        active          [   4 ]
        restricted_uocc [   0 ]
        frozen_uocc     [   0 ]

  ==> Orbital optimization parameters <==

        1-step algorithm:                    true
        g_convergence:                  1.000e-04
        e_convergence:                  1.000e-06
        maximum iterations:                   500
        frequency:                            500
        active-active rotations:             true
        exact diagonal Hessian:              true
        number of DIIS vectors:                 0
        print iteration info:               false

  ==> Memory requirements <==

        D2:                          0.00 mb
        Q2:                          0.00 mb
        G2:                          0.00 mb

        Total number of variables:            330
        Total number of constraints:          325
        Total memory requirements:        0.05 mb

    ==> Transform three-electron integrals <==


        Time for integral transformation:     0.03 s

    Molecular point group: c1
    Full point group: D_inf_h

    Geometry (in Angstrom), charge = 0, multiplicity = 1:

       Center              X                  Y                   Z               Mass       
    ------------   -----------------  -----------------  -----------------  -----------------
         H            0.000000000000     0.000000000000    -0.900000000000     1.007825032070
         H            0.000000000000     0.000000000000    -0.300000000000     1.007825032070
         H            0.000000000000     0.000000000000     0.300000000000     1.007825032070
         H            0.000000000000     0.000000000000     0.900000000000     1.007825032070

  -AO BASIS SET INFORMATION:
    Name                   = STO-3G
    Blend                  = STO-3G
    Total number of shells = 4
    Number of primitives   = 12
    Number of AO           = 4
    Number of SO           = 4
    Maximum AM             = 0
    Spherical Harmonics    = TRUE

  -Contraction Scheme:
    Atom   Type   All Primitives // Shells:
   ------ ------ --------------------------
       1     H     3s // 1s 
       2     H     3s // 1s 
       3     H     3s // 1s 
       4     H     3s // 1s 

  ==> AO Basis Functions <==

    [ STO-3G ]
    spherical
    ****
    H   1
    S   3 1.00
                         3.42525091           0.15432897
                         0.62391373           0.53532814
                         0.16885540           0.44463454
    ****
    H   2
    S   3 1.00
                         3.42525091           0.15432897
                         0.62391373           0.53532814
                         0.16885540           0.44463454
    ****
    H   3
    S   3 1.00
                         3.42525091           0.15432897
                         0.62391373           0.53532814
                         0.16885540           0.44463454
    ****
    H   4
    S   3 1.00
                         3.42525091           0.15432897
                         0.62391373           0.53532814
                         0.16885540           0.44463454
    ****


    reference energy:          -1.929648629911
    frozen core energy:         0.000000000000
    initial 2-RDM energy:       3.943921564677

      oiter iiter        E(p)        E(d)      E gap)      mu     eps(p)     eps(d)
          0    14    0.738664   20.525559   19.786895   1.000   0.012407   0.250173
          1    16    0.184886    1.067830    0.882944   1.000   0.003327   0.045484
          2    14   -0.467628    1.493870    1.961498   1.000   0.032191   0.043440
          3    10   -1.071129    1.402859    2.473988   1.000   0.053453   0.036112
          4    14   -1.400486    0.610839    2.011325   1.000   0.054257   0.028683
          5    15   -1.503314   -0.064267    1.439047   1.000   0.038747   0.029356
          6    16   -1.590115   -0.242612    1.347503   1.000   0.024305   0.027680
          7    15   -1.715106   -0.317947    1.397159   1.000   0.021321   0.023242
          8    15   -1.793936   -0.491069    1.302867   1.000   0.014999   0.022138
          9    15   -1.855248   -0.545218    1.310030   1.000   0.006691   0.022726
         10    13   -1.922560   -0.534174    1.388385   1.000   0.004817   0.021815
         11    13   -2.085206   -0.522700    1.562506   1.000   0.010237   0.015446
         12    16   -2.202491   -1.236663    0.965828   1.000   0.013111   0.007153
         13    15   -2.194882   -2.058304    0.136578   1.000   0.011539   0.004705
         14    16   -2.102826   -2.575751    0.472924   1.000   0.007917   0.006354
         15    15   -1.985085   -2.715172    0.730087   1.000   0.005046   0.007145
         16    16   -1.890993   -2.554500    0.663507   1.000   0.005755   0.005772
         17    12   -1.845201   -2.248247    0.403046   1.000   0.006922   0.003330
         18    13   -1.846934   -1.950425    0.103491   1.000   0.006676   0.002048
         19    13   -1.878121   -1.766722    0.111400   1.000   0.005161   0.002468
         20    15   -1.926621   -1.719228    0.207393   1.000   0.002667   0.002565
         21    16   -1.967923   -1.746123    0.221800   1.000   0.001609   0.002280
         22    15   -1.985799   -1.826690    0.159109   1.000   0.002042   0.001623
         23    15   -1.989468   -1.914780    0.074688   1.000   0.002154   0.001106
         24    15   -1.983480   -1.985790    0.002311   1.000   0.001883   0.000985
         25    16   -1.973305   -2.025015    0.051710   1.000   0.001471   0.001052
         26    13   -1.963225   -2.031569    0.068344   1.000   0.001178   0.001018
         27    16   -1.955811   -2.013797    0.057986   1.000   0.001104   0.000846
         28    15   -1.952102   -1.984071    0.031970   1.000   0.001116   0.000628
         29    15   -1.951913   -1.954264    0.002351   1.000   0.001070   0.000497
         30    16   -1.954178   -1.933684    0.020494   1.000   0.000757   0.000743
         31    16   -1.956200   -1.944104    0.012096   1.000   0.000689   0.000410
         32    13   -1.957189   -1.947843    0.009346   1.000   0.000673   0.000320
         33    16   -1.957296   -1.950464    0.006833   1.000   0.000662   0.000278
         34    15   -1.957054   -1.951954    0.005100   1.000   0.000655   0.000247
         35    16   -1.956839   -1.952805    0.004034   1.000   0.000649   0.000216
         36    16   -1.956731   -1.953549    0.003182   1.000   0.000639   0.000191
         37    16   -1.956653   -1.954290    0.002363   1.000   0.000629   0.000172
         38    16   -1.956528   -1.954840    0.001687   1.000   0.000619   0.000155
         39    16   -1.956350   -1.955010    0.001340   1.000   0.000611   0.000141
         40    16   -1.956168   -1.954774    0.001394   1.000   0.000604   0.000128
         41    16   -1.956034   -1.954267    0.001767   1.000   0.000599   0.000118
         42    16   -1.955972   -1.953689    0.002283   1.000   0.000594   0.000109
         43    16   -1.955975   -1.953211    0.002764   1.000   0.000589   0.000102
         44    16   -1.956013   -1.952927    0.003087   1.000   0.000585   0.000096
         45    16   -1.956060   -1.952849    0.003210   1.000   0.000581   0.000091
         46    16   -1.956091   -1.952934    0.003157   1.000   0.000573   0.000097
         47    16   -1.956065   -1.953638    0.002427   1.000   0.000562   0.000113
         48    16   -1.955913   -1.954992    0.000921   1.000   0.000559   0.000084
         49    16   -1.955692   -1.955070    0.000622   1.000   0.000556   0.000076
         50    18   -1.955488   -1.954672    0.000816   1.000   0.000552   0.000072
         51    16   -1.955355   -1.954083    0.001272   1.000   0.000548   0.000069
         52    16   -1.955303   -1.953454    0.001848   1.000   0.000527   0.000087
         53    15   -1.955005   -1.954278    0.000727   1.000   0.000507   0.000183
         54    15   -1.953932   -1.957929    0.003997   1.000   0.000512   0.000089
         55    16   -1.953225   -1.957678    0.004453   1.000   0.000517   0.000067
         56    15   -1.952894   -1.956435    0.003541   1.000   0.000514   0.000057
         57    16   -1.952814   -1.954793    0.001979   1.000   0.000509   0.000049
         58    16   -1.952872   -1.953224    0.000352   1.000   0.000506   0.000043
         59    18   -1.953006   -1.952027    0.000979   1.000   0.000503   0.000042
         60    15   -1.953183   -1.951346    0.001837   1.000   0.000501   0.000043
         61    15   -1.953373   -1.951191    0.002182   1.000   0.000499   0.000043
         62    15   -1.953539   -1.951472    0.002067   1.000   0.000497   0.000041
         63    15   -1.953647   -1.952031    0.001615   1.000   0.000495   0.000039
         64    18   -1.953677   -1.952682    0.000995   1.000   0.000494   0.000037
         65    15   -1.953632   -1.953261    0.000371   1.000   0.000493   0.000036
         66    15   -1.953534   -1.953649    0.000115   1.000   0.000492   0.000036
         67    17   -1.953413   -1.953797    0.000384   1.000   0.000491   0.000036
         68    18   -1.953297   -1.953722    0.000425   1.000   0.000490   0.000035
         69    15   -1.953208   -1.953484    0.000277   1.000   0.000489   0.000034
         70    17   -1.953155   -1.953166    0.000011   1.000   0.000488   0.000033
         71    18   -1.953139   -1.952850    0.000289   1.000   0.000487   0.000032
         72    14   -1.953150   -1.952598    0.000552   1.000   0.000486   0.000032
         73    17   -1.953177   -1.952444    0.000734   1.000   0.000485   0.000032
         74    18   -1.953207   -1.952393    0.000814   1.000   0.000484   0.000032
         75    14   -1.953230   -1.952428    0.000802   1.000   0.000482   0.000031
         76    17   -1.953238   -1.952515    0.000723   1.000   0.000481   0.000031
         77    18   -1.953231   -1.952618    0.000613   1.000   0.000480   0.000031
         78    17   -1.953210   -1.952705    0.000504   1.000   0.000479   0.000031
         79    14   -1.953179   -1.952756    0.000423   1.000   0.000479   0.000030
         80    18   -1.953145   -1.952761    0.000384   1.000   0.000478   0.000030
         81    17   -1.953113   -1.952725    0.000388   1.000   0.000477   0.000030
         82    14   -1.953085   -1.952659    0.000427   1.000   0.000476   0.000029
         83    18   -1.953065   -1.952578    0.000487   1.000   0.000475   0.000029
         84    17   -1.953052   -1.952497    0.000554   1.000   0.000474   0.000029
         85    14   -1.953044   -1.952430    0.000614   1.000   0.000473   0.000029
         86    18   -1.953039   -1.952381    0.000658   1.000   0.000473   0.000028
         87    17   -1.953034   -1.952352    0.000683   1.000   0.000472   0.000028
         88    14   -1.953029   -1.952339    0.000690   1.000   0.000471   0.000028
         89    18   -1.953021   -1.952336    0.000685   1.000   0.000470   0.000028
         90    17   -1.953010   -1.952336    0.000674   1.000   0.000469   0.000028
         91    17   -1.952996   -1.952333    0.000663   1.000   0.000468   0.000027
         92    18   -1.952981   -1.952323    0.000657   1.000   0.000468   0.000027
         93    15   -1.952964   -1.952306    0.000659   1.000   0.000467   0.000027
         94    17   -1.952949   -1.952279    0.000670   1.000   0.000466   0.000027
         95    17   -1.952935   -1.952248    0.000687   1.000   0.000465   0.000027
         96    18   -1.952922   -1.952213    0.000708   1.000   0.000464   0.000026
         97    15   -1.952910   -1.952180    0.000730   1.000   0.000464   0.000026
         98    15   -1.952900   -1.952149    0.000751   1.000   0.000463   0.000026
         99    15   -1.952890   -1.952121    0.000769   1.000   0.000462   0.000026
        100    15   -1.952880   -1.952097    0.000783   1.000   0.000462   0.000026
        101    18   -1.952871   -1.952076    0.000795   1.000   0.000461   0.000026
        102    15   -1.952861   -1.952058    0.000803   1.000   0.000460   0.000025
        103    15   -1.952850   -1.952039    0.000811   1.000   0.000459   0.000025
        104    15   -1.952839   -1.952021    0.000818   1.000   0.000459   0.000025
        105    18   -1.952828   -1.952001    0.000827   1.000   0.000458   0.000025
        106    15   -1.952817   -1.951981    0.000836   1.000   0.000457   0.000025
        107    15   -1.952806   -1.951958    0.000848   1.000   0.000457   0.000025
        108    18   -1.952795   -1.951934    0.000861   1.000   0.000456   0.000024
        109    15   -1.952784   -1.951911    0.000874   1.000   0.000455   0.000024
        110    15   -1.952774   -1.951887    0.000887   1.000   0.000455   0.000024
        111    18   -1.952765   -1.951863    0.000901   1.000   0.000454   0.000024
        112    17   -1.952755   -1.951841    0.000914   1.000   0.000453   0.000024
        113    16   -1.952746   -1.951819    0.000926   1.000   0.000453   0.000024
        114    15   -1.952736   -1.951799    0.000937   1.000   0.000452   0.000024
        115    15   -1.952727   -1.951779    0.000948   1.000   0.000451   0.000023
        116    18   -1.952717   -1.951758    0.000959   1.000   0.000451   0.000023
        117    17   -1.952708   -1.951738    0.000970   1.000   0.000450   0.000023
        118    15   -1.952698   -1.951718    0.000980   1.000   0.000449   0.000023
        119    16   -1.952689   -1.951698    0.000991   1.000   0.000449   0.000023
        120    18   -1.952680   -1.951677    0.001003   1.000   0.000448   0.000023
        121    15   -1.952670   -1.951656    0.001014   1.000   0.000448   0.000023
        122    15   -1.952661   -1.951635    0.001026   1.000   0.000447   0.000023
        123    15   -1.952652   -1.951615    0.001037   1.000   0.000446   0.000022
        124    18   -1.952643   -1.951594    0.001049   1.000   0.000446   0.000022
        125    15   -1.952634   -1.951574    0.001060   1.000   0.000445   0.000022
        126    15   -1.952626   -1.951554    0.001072   1.000   0.000445   0.000022
        127    15   -1.952617   -1.951534    0.001083   1.000   0.000444   0.000022
        128    17   -1.952608   -1.951514    0.001094   1.000   0.000443   0.000022
        129    18   -1.952600   -1.951495    0.001106   1.000   0.000443   0.000022
        130    15   -1.952592   -1.951476    0.001116   1.000   0.000442   0.000022
        131    15   -1.952583   -1.951456    0.001127   1.000   0.000442   0.000022
        132    15   -1.952575   -1.951437    0.001138   1.000   0.000441   0.000021
        133    16   -1.952566   -1.951418    0.001149   1.000   0.000441   0.000021
        134    17   -1.952558   -1.951398    0.001160   1.000   0.000440   0.000021
        135    17   -1.952550   -1.951379    0.001171   1.000   0.000439   0.000021
        136    17   -1.952542   -1.951360    0.001182   1.000   0.000439   0.000021
        137    17   -1.952534   -1.951341    0.001193   1.000   0.000438   0.000021
        138    17   -1.952526   -1.951322    0.001204   1.000   0.000438   0.000021
        139    17   -1.952518   -1.951303    0.001215   1.000   0.000437   0.000021
        140    16   -1.952510   -1.951285    0.001226   1.000   0.000437   0.000021
        141    17   -1.952502   -1.951266    0.001236   1.000   0.000436   0.000020
        142    17   -1.952495   -1.951248    0.001247   1.000   0.000436   0.000020
        143    17   -1.952487   -1.951229    0.001258   1.000   0.000435   0.000020
        144    17   -1.952479   -1.951211    0.001268   1.000   0.000435   0.000020
        145    16   -1.952472   -1.951193    0.001279   1.000   0.000434   0.000020
        146    17   -1.952464   -1.951174    0.001290   1.000   0.000433   0.000020
        147    17   -1.952457   -1.951156    0.001300   1.000   0.000433   0.000020
        148    17   -1.952449   -1.951138    0.001311   1.000   0.000432   0.000020
        149    17   -1.952442   -1.951120    0.001321   1.000   0.000432   0.000020
        150    17   -1.952434   -1.951102    0.001332   1.000   0.000431   0.000020
        151    15   -1.952427   -1.951085    0.001342   1.000   0.000431   0.000020
        152    17   -1.952420   -1.951067    0.001353   1.000   0.000430   0.000019
        153    16   -1.952413   -1.951049    0.001363   1.000   0.000430   0.000019
        154    16   -1.952406   -1.951032    0.001374   1.000   0.000429   0.000019
        155    16   -1.952398   -1.951014    0.001384   1.000   0.000429   0.000019
        156    17   -1.952391   -1.950997    0.001395   1.000   0.000428   0.000019
        157    16   -1.952384   -1.950980    0.001405   1.000   0.000428   0.000019
        158    17   -1.952377   -1.950962    0.001415   1.000   0.000427   0.000019
        159    16   -1.952370   -1.950945    0.001425   1.000   0.000427   0.000019
        160    17   -1.952364   -1.950928    0.001436   1.000   0.000426   0.000019
        161    17   -1.952357   -1.950911    0.001446   1.000   0.000426   0.000019
        162    17   -1.952350   -1.950894    0.001456   1.000   0.000425   0.000019
        163    17   -1.952343   -1.950877    0.001466   1.000   0.000425   0.000019
        164    17   -1.952339   -1.950883    0.001456   1.000   0.000417   0.000068
        165    16   -1.952460   -1.951993    0.000467   1.000   0.000397   0.000052
        166    16   -1.952461   -1.953271    0.000811   1.000   0.000371   0.000078
        167    15   -1.952318   -1.954805    0.002487   1.000   0.000359   0.000058
        168    16   -1.951904   -1.955272    0.003368   1.000   0.000357   0.000049
        169    15   -1.951403   -1.954723    0.003320   1.000   0.000361   0.000039
        170    14   -1.951011   -1.953366    0.002355   1.000   0.000368   0.000026
        171    16   -1.950838   -1.951659    0.000821   1.000   0.000372   0.000014
        172    15   -1.950892   -1.950070    0.000822   1.000   0.000371   0.000014
        173    17   -1.951108   -1.948927    0.002181   1.000   0.000369   0.000022
        174    16   -1.951396   -1.948365    0.003031   1.000   0.000365   0.000027
        175    15   -1.951675   -1.948356    0.003319   1.000   0.000363   0.000027
        176    16   -1.951892   -1.948771    0.003121   1.000   0.000361   0.000024
        177    15   -1.952024   -1.949440    0.002584   1.000   0.000361   0.000019
        178    15   -1.952069   -1.950192    0.001877   1.000   0.000361   0.000014
        179    17   -1.952041   -1.950887    0.001153   1.000   0.000361   0.000013
        180    15   -1.951958   -1.951423    0.000535   1.000   0.000361   0.000014
        181    15   -1.951844   -1.951742    0.000102   1.000   0.000361   0.000016
        182    15   -1.951722   -1.951831    0.000109   1.000   0.000361   0.000017
        183    15   -1.951612   -1.951713    0.000101   1.000   0.000361   0.000016
        184    17   -1.951528   -1.951442    0.000086   1.000   0.000360   0.000014
        185    15   -1.951481   -1.951088    0.000393   1.000   0.000360   0.000012
        186    14   -1.951471   -1.950723    0.000748   1.000   0.000360   0.000011
        187    15   -1.951493   -1.950409    0.001085   1.000   0.000360   0.000012
        188    17   -1.951538   -1.950188    0.001350   1.000   0.000359   0.000012
        189    14   -1.951593   -1.950080    0.001513   1.000   0.000358   0.000013
        190    15   -1.951647   -1.950081    0.001566   1.000   0.000358   0.000013
        191    17   -1.951690   -1.950170    0.001520   1.000   0.000357   0.000013
        192    13   -1.951717   -1.950314    0.001403   1.000   0.000357   0.000012
        193    17   -1.951724   -1.950476    0.001248   1.000   0.000357   0.000012
        194    15   -1.951715   -1.950625    0.001090   1.000   0.000356   0.000012
        195    15   -1.951693   -1.950736    0.000957   1.000   0.000356   0.000012
        196    15   -1.951664   -1.950794    0.000870   1.000   0.000356   0.000012
        197    17   -1.951633   -1.950799    0.000834   1.000   0.000356   0.000012
        198    14   -1.951606   -1.950756    0.000850   1.000   0.000355   0.000012
        199    15   -1.951586   -1.950681    0.000905   1.000   0.000355   0.000012
        200    17   -1.951574   -1.950589    0.000985   1.000   0.000355   0.000011
        201    14   -1.951572   -1.950498    0.001074   1.000   0.000355   0.000011
        202    15   -1.951576   -1.950421    0.001155   1.000   0.000354   0.000011
        203    15   -1.951585   -1.950367    0.001218   1.000   0.000354   0.000011
        204    17   -1.951596   -1.950339    0.001257   1.000   0.000353   0.000011
        205    15   -1.951606   -1.950336    0.001270   1.000   0.000353   0.000011
        206    14   -1.951613   -1.950351    0.001262   1.000   0.000353   0.000011
        207    17   -1.951617   -1.950378    0.001239   1.000   0.000352   0.000011
        208    15   -1.951616   -1.950407    0.001209   1.000   0.000352   0.000011
        209    14   -1.951611   -1.950432    0.001179   1.000   0.000352   0.000011
        210    15   -1.951604   -1.950448    0.001155   1.000   0.000351   0.000011
        211    17   -1.951595   -1.950452    0.001143   1.000   0.000351   0.000011
        212    13   -1.951586   -1.950443    0.001142   1.000   0.000351   0.000011
        213    15   -1.951578   -1.950425    0.001153   1.000   0.000351   0.000011
        214    17   -1.951572   -1.950399    0.001173   1.000   0.000350   0.000011
        215    15   -1.951567   -1.950370    0.001198   1.000   0.000350   0.000011
        216    14   -1.951565   -1.950342    0.001223   1.000   0.000350   0.000011
        217    15   -1.951564   -1.950317    0.001247   1.000   0.000349   0.000011
        218    17   -1.951565   -1.950298    0.001267   1.000   0.000349   0.000011
        219    14   -1.951565   -1.950285    0.001280   1.000   0.000349   0.000011
        220    15   -1.951566   -1.950278    0.001288   1.000   0.000348   0.000011
        221    17   -1.951565   -1.950274    0.001291   1.000   0.000348   0.000011
        222    13   -1.951564   -1.950273    0.001291   1.000   0.000348   0.000011
        223    15   -1.951562   -1.950272    0.001289   1.000   0.000348   0.000011
        224    17   -1.951558   -1.950270    0.001288   1.000   0.000347   0.000011
        225    15   -1.951555   -1.950266    0.001289   1.000   0.000347   0.000011
        226    13   -1.951551   -1.950259    0.001292   1.000   0.000347   0.000011
        227    16   -1.951547   -1.950249    0.001297   1.000   0.000346   0.000011
        228    15   -1.951543   -1.950237    0.001306   1.000   0.000346   0.000011
        229    17   -1.951540   -1.950224    0.001316   1.000   0.000346   0.000011
        230    15   -1.951537   -1.950210    0.001327   1.000   0.000346   0.000011
        231    13   -1.951535   -1.950196    0.001338   1.000   0.000345   0.000011
        232    17   -1.951532   -1.950183    0.001349   1.000   0.000345   0.000011
        233    15   -1.951531   -1.950172    0.001359   1.000   0.000345   0.000011
        234    15   -1.951529   -1.950162    0.001367   1.000   0.000344   0.000011
        235    17   -1.951527   -1.950153    0.001374   1.000   0.000344   0.000011
        236    15   -1.951525   -1.950145    0.001380   1.000   0.000344   0.000011
        237    14   -1.951523   -1.950137    0.001385   1.000   0.000343   0.000011
        238    15   -1.951520   -1.950130    0.001390   1.000   0.000343   0.000011
        239    17   -1.951517   -1.950122    0.001395   1.000   0.000343   0.000011
        240    13   -1.951515   -1.950114    0.001401   1.000   0.000343   0.000011
        241    17   -1.951512   -1.950105    0.001407   1.000   0.000342   0.000011
        242    15   -1.951509   -1.950096    0.001413   1.000   0.000342   0.000011
        243    14   -1.951506   -1.950086    0.001421   1.000   0.000342   0.000011
        244    15   -1.951504   -1.950075    0.001428   1.000   0.000341   0.000011
        245    17   -1.951501   -1.950065    0.001436   1.000   0.000341   0.000011
        246    15   -1.951499   -1.950055    0.001444   1.000   0.000335   0.000030
        247    18   -1.951446   -1.950800    0.000645   1.000   0.000326   0.000055
        248    17   -1.951268   -1.952426    0.001158   1.000   0.000309   0.000037
        249    17   -1.950987   -1.953294    0.002307   1.000   0.000267   0.000087
        250    15   -1.950499   -1.955737    0.005239   1.000   0.000251   0.000067
        251    16   -1.949899   -1.956409    0.006509   1.000   0.000242   0.000071
        252    15   -1.949264   -1.956383    0.007119   1.000   0.000240   0.000069
        253    16   -1.948681   -1.955683    0.007003   1.000   0.000243   0.000060
        254    15   -1.948224   -1.954439    0.006216   1.000   0.000248   0.000047
        255    16   -1.947940   -1.952858    0.004918   1.000   0.000251   0.000030
        256    15   -1.947839   -1.951171    0.003332   1.000   0.000252   0.000012
        257    18   -1.947906   -1.949586    0.001680   1.000   0.000250   0.000006
        258    17   -1.948105   -1.948260    0.000155   1.000   0.000246   0.000020
        259    12   -1.948396   -1.947289    0.001107   1.000   0.000243   0.000030
        260    13   -1.948737   -1.946717    0.002020   1.000   0.000240   0.000037
        261    16   -1.949090   -1.946546    0.002544   1.000   0.000239   0.000039
        262    16   -1.949419   -1.946741    0.002679   1.000   0.000240   0.000037
        263    16   -1.949698   -1.947241    0.002457   1.000   0.000241   0.000031
        264    17   -1.949905   -1.947966    0.001939   1.000   0.000242   0.000024
        265    16   -1.950026   -1.948819    0.001207   1.000   0.000243   0.000015
        266    17   -1.950060   -1.949704    0.000357   1.000   0.000243   0.000007
        267    18   -1.950012   -1.950526    0.000514   1.000   0.000242   0.000007
        268    17   -1.949896   -1.951211    0.001316   1.000   0.000240   0.000014
        269    15   -1.949730   -1.951705    0.001974   1.000   0.000239   0.000019
        270    18   -1.949538   -1.951979    0.002440   1.000   0.000238   0.000022
        271    17   -1.949342   -1.952031    0.002689   1.000   0.000237   0.000022
        272    13   -1.949162   -1.951880    0.002719   1.000   0.000236   0.000020
        273    17   -1.949013   -1.951567    0.002555   1.000   0.000235   0.000017
        274    18   -1.948907   -1.951141    0.002234   1.000   0.000235   0.000012
        275    17   -1.948849   -1.950655    0.001806   1.000   0.000235   0.000007
        276    16   -1.948840   -1.950166    0.001326   1.000   0.000234   0.000003
        277    17   -1.948875   -1.949722    0.000847   1.000   0.000234   0.000004
        278    18   -1.948945   -1.949361    0.000416   1.000   0.000233   0.000008
        279    17   -1.949039   -1.949109    0.000070   1.000   0.000233   0.000010
        280    15   -1.949145   -1.948979    0.000166   1.000   0.000232   0.000012
        281    18   -1.949251   -1.948969    0.000282   1.000   0.000232   0.000012
        282    17   -1.949347   -1.949066    0.000281   1.000   0.000232   0.000011
        283    16   -1.949424   -1.949249    0.000176   1.000   0.000232   0.000009
        284    18   -1.949477   -1.949488    0.000011   1.000   0.000231   0.000007
        285    17   -1.949503   -1.949754    0.000251   1.000   0.000231   0.000004
        286    16   -1.949503   -1.950018    0.000515   1.000   0.000231   0.000004
        287    17   -1.949479   -1.950252    0.000773   1.000   0.000230   0.000004
        288    18   -1.949437   -1.950438    0.001001   1.000   0.000230   0.000006
        289    15   -1.949382   -1.950562    0.001180   1.000   0.000229   0.000007
        290    18   -1.949323   -1.950619    0.001296   1.000   0.000229   0.000008
        291    17   -1.949264   -1.950610    0.001347   1.000   0.000228   0.000007
        292    16   -1.949211   -1.950544    0.001333   1.000   0.000228   0.000007
        293    17   -1.949170   -1.950433    0.001264   1.000   0.000227   0.000006
        294    17   -1.949142   -1.950294    0.001152   1.000   0.000227   0.000004
        295    18   -1.949129   -1.950143    0.001013   1.000   0.000227   0.000003
        296    17   -1.949131   -1.949995    0.000864   1.000   0.000226   0.000002
        297    16   -1.949145   -1.949865    0.000721   1.000   0.000226   0.000003
        298    18   -1.949169   -1.949764    0.000595   1.000   0.000225   0.000003
        299    17   -1.949199   -1.949697    0.000499   1.000   0.000225   0.000004
        300    16   -1.949231   -1.949668    0.000437   1.000   0.000225   0.000004
        301    17   -1.949263   -1.949674    0.000411   1.000   0.000224   0.000004
        302    18   -1.949290   -1.949710    0.000420   1.000   0.000224   0.000004
        303    16   -1.949311   -1.949770    0.000459   1.000   0.000224   0.000004
        304    18   -1.949325   -1.949845    0.000520   1.000   0.000224   0.000003
        305    17   -1.949330   -1.949926    0.000595   1.000   0.000223   0.000003
        306    18   -1.949328   -1.950003    0.000675   1.000   0.000223   0.000003
        307    17   -1.949318   -1.950069    0.000751   1.000   0.000222   0.000003
        308    15   -1.949304   -1.950120    0.000815   1.000   0.000222   0.000003
        309    18   -1.949286   -1.950150    0.000864   1.000   0.000222   0.000003
        310    17   -1.949268   -1.950161    0.000893   1.000   0.000221   0.000004
        311    15   -1.949250   -1.950152    0.000902   1.000   0.000221   0.000003
        312    18   -1.949234   -1.950127    0.000892   1.000   0.000220   0.000003
        313    17   -1.949222   -1.950089    0.000867   1.000   0.000220   0.000003
        314    17   -1.949215   -1.950044    0.000829   1.000   0.000220   0.000003
        315    18   -1.949212   -1.949996    0.000784   1.000   0.000219   0.000003
        316    17   -1.949213   -1.949950    0.000737   1.000   0.000219   0.000002
        317    16   -1.949217   -1.949911    0.000693   1.000   0.000219   0.000002
        318    18   -1.949225   -1.949881    0.000656   1.000   0.000218   0.000002
        319    17   -1.949234   -1.949861    0.000627   1.000   0.000218   0.000003
        320    15   -1.949244   -1.949853    0.000609   1.000   0.000218   0.000003
        321    18   -1.949253   -1.949856    0.000602   1.000   0.000217   0.000003
        322    17   -1.949261   -1.949867    0.000606   1.000   0.000217   0.000003
        323    17   -1.949267   -1.949885    0.000618   1.000   0.000217   0.000003
        324    18   -1.949270   -1.949907    0.000637   1.000   0.000216   0.000002
        325    17   -1.949271   -1.949930    0.000659   1.000   0.000216   0.000002
        326    16   -1.949270   -1.949952    0.000682   1.000   0.000216   0.000002
        327    17   -1.949266   -1.949970    0.000704   1.000   0.000215   0.000003
        328    18   -1.949262   -1.949983    0.000722   1.000   0.000215   0.000003
        329    17   -1.949256   -1.949990    0.000734   1.000   0.000215   0.000003
        330    17   -1.949250   -1.949991    0.000741   1.000   0.000214   0.000003
        331    18   -1.949244   -1.949986    0.000742   1.000   0.000214   0.000003
        332    17   -1.949239   -1.949976    0.000737   1.000   0.000214   0.000002
        333    16   -1.949236   -1.949963    0.000727   1.000   0.000213   0.000002
        334    17   -1.949233   -1.949948    0.000714   1.000   0.000213   0.000002
        335    18   -1.949232   -1.949932    0.000699   1.000   0.000213   0.000002
        336    17   -1.949233   -1.949917    0.000684   1.000   0.000212   0.000002
        337    16   -1.949234   -1.949903    0.000669   1.000   0.000212   0.000002
        338    18   -1.949236   -1.949893    0.000657   1.000   0.000212   0.000002
        339    17   -1.949239   -1.949886    0.000648   1.000   0.000211   0.000002
        340    16   -1.949242   -1.949883    0.000641   1.000   0.000211   0.000002
        341    18   -1.949244   -1.949883    0.000639   1.000   0.000211   0.000002
        342    17   -1.949246   -1.949885    0.000639   1.000   0.000210   0.000002
        343    16   -1.949248   -1.949890    0.000642   1.000   0.000210   0.000002
        344    18   -1.949249   -1.949895    0.000647   1.000   0.000210   0.000002
        345    17   -1.949249   -1.949901    0.000652   1.000   0.000209   0.000002
        346    15   -1.949248   -1.949906    0.000658   1.000   0.000209   0.000002
        347    18   -1.949247   -1.949910    0.000664   1.000   0.000209   0.000002
        348    17   -1.949245   -1.949913    0.000668   1.000   0.000208   0.000002
        349    15   -1.949243   -1.949914    0.000671   1.000   0.000208   0.000002
        350    18   -1.949241   -1.949913    0.000672   1.000   0.000208   0.000002
        351    17   -1.949239   -1.949910    0.000671   1.000   0.000207   0.000002
        352    17   -1.949238   -1.949905    0.000668   1.000   0.000207   0.000002
        353    17   -1.949236   -1.949900    0.000664   1.000   0.000207   0.000002
        354    18   -1.949235   -1.949894    0.000659   1.000   0.000206   0.000002
        355    16   -1.949235   -1.949888    0.000653   1.000   0.000206   0.000002
        356    18   -1.949235   -1.949882    0.000647   1.000   0.000206   0.000002
        357    17   -1.949235   -1.949877    0.000642   1.000   0.000205   0.000002
        358    16   -1.949236   -1.949873    0.000637   1.000   0.000205   0.000002
        359    17   -1.949236   -1.949869    0.000633   1.000   0.000205   0.000002
        360    18   -1.949237   -1.949867    0.000630   1.000   0.000204   0.000002
        361    17   -1.949237   -1.949866    0.000628   1.000   0.000204   0.000002
        362    17   -1.949238   -1.949865    0.000627   1.000   0.000204   0.000002
        363    17   -1.949238   -1.949865    0.000627   1.000   0.000204   0.000002
        364    18   -1.949238   -1.949866    0.000628   1.000   0.000203   0.000002
        365    17   -1.949238   -1.949866    0.000628   1.000   0.000203   0.000002
        366    17   -1.949238   -1.949867    0.000629   1.000   0.000203   0.000002
        367    18   -1.949237   -1.949867    0.000630   1.000   0.000202   0.000002
        368    17   -1.949237   -1.949867    0.000630   1.000   0.000202   0.000002
        369    16   -1.949236   -1.949866    0.000630   1.000   0.000202   0.000002
        370    17   -1.949235   -1.949864    0.000629   1.000   0.000201   0.000002
        371    18   -1.949234   -1.949862    0.000628   1.000   0.000201   0.000002
        372    17   -1.949234   -1.949860    0.000626   1.000   0.000201   0.000002
        373    15   -1.949233   -1.949857    0.000624   1.000   0.000200   0.000002
        374    18   -1.949233   -1.949854    0.000621   1.000   0.000200   0.000002
        375    17   -1.949232   -1.949851    0.000618   1.000   0.000200   0.000002
        376    16   -1.949232   -1.949848    0.000616   1.000   0.000200   0.000002
        377    18   -1.949232   -1.949845    0.000613   1.000   0.000199   0.000002
        378    17   -1.949232   -1.949843    0.000610   1.000   0.000199   0.000002
        379    17   -1.949232   -1.949840    0.000608   1.000   0.000199   0.000002
        380    17   -1.949232   -1.949839    0.000606   1.000   0.000198   0.000002
        381    18   -1.949232   -1.949837    0.000605   1.000   0.000198   0.000002
        382    15   -1.949232   -1.949836    0.000603   1.000   0.000198   0.000002
        383    18   -1.949232   -1.949835    0.000602   1.000   0.000198   0.000002
        384    17   -1.949232   -1.949834    0.000602   1.000   0.000197   0.000002
        385    17   -1.949232   -1.949833    0.000601   1.000   0.000197   0.000002
        386    17   -1.949232   -1.949832    0.000600   1.000   0.000197   0.000002
        387    18   -1.949231   -1.949831    0.000599   1.000   0.000196   0.000002
        388    16   -1.949231   -1.949829    0.000598   1.000   0.000196   0.000002
        389    18   -1.949231   -1.949828    0.000597   1.000   0.000196   0.000002
        390    17   -1.949230   -1.949826    0.000596   1.000   0.000195   0.000002
        391    16   -1.949230   -1.949825    0.000595   1.000   0.000195   0.000002
        392    18   -1.949229   -1.949823    0.000593   1.000   0.000195   0.000002
        393    17   -1.949229   -1.949821    0.000592   1.000   0.000195   0.000002
        394    18   -1.949229   -1.949819    0.000590   1.000   0.000194   0.000002
        395    17   -1.949229   -1.949817    0.000588   1.000   0.000194   0.000002
        396    17   -1.949228   -1.949815    0.000586   1.000   0.000194   0.000002
        397    18   -1.949228   -1.949813    0.000585   1.000   0.000193   0.000002
        398    17   -1.949228   -1.949811    0.000583   1.000   0.000193   0.000002
        399    17   -1.949228   -1.949809    0.000581   1.000   0.000193   0.000002
        400    17   -1.949228   -1.949808    0.000580   1.000   0.000193   0.000002
        401    18   -1.949228   -1.949806    0.000578   1.000   0.000192   0.000002
        402    16   -1.949228   -1.949805    0.000577   1.000   0.000192   0.000002
        403    18   -1.949228   -1.949803    0.000576   1.000   0.000192   0.000002
        404    17   -1.949227   -1.949802    0.000575   1.000   0.000192   0.000002
        405    16   -1.949227   -1.949801    0.000573   1.000   0.000191   0.000002
        406    18   -1.949227   -1.949799    0.000572   1.000   0.000191   0.000002
        407    17   -1.949227   -1.949798    0.000571   1.000   0.000191   0.000002
        408    18   -1.949227   -1.949797    0.000570   1.000   0.000190   0.000002
        409    17   -1.949226   -1.949795    0.000569   1.000   0.000190   0.000002
        410    16   -1.949226   -1.949794    0.000567   1.000   0.000190   0.000002
        411    18   -1.949226   -1.949792    0.000566   1.000   0.000190   0.000002
        412    17   -1.949226   -1.949791    0.000565   1.000   0.000189   0.000002
        413    16   -1.949226   -1.949789    0.000563   1.000   0.000189   0.000002
        414    18   -1.949225   -1.949787    0.000562   1.000   0.000189   0.000002
        415    17   -1.949225   -1.949786    0.000560   1.000   0.000188   0.000002
        416    18   -1.949225   -1.949784    0.000559   1.000   0.000188   0.000002
        417    17   -1.949225   -1.949782    0.000558   1.000   0.000188   0.000002
        418    18   -1.949225   -1.949781    0.000556   1.000   0.000188   0.000002
        419    17   -1.949225   -1.949779    0.000555   1.000   0.000187   0.000002
        420    18   -1.949224   -1.949778    0.000553   1.000   0.000187   0.000002
        421    17   -1.949224   -1.949776    0.000552   1.000   0.000187   0.000002
        422    17   -1.949224   -1.949775    0.000551   1.000   0.000187   0.000002
        423    18   -1.949224   -1.949773    0.000549   1.000   0.000186   0.000002
        424    17   -1.949224   -1.949772    0.000548   1.000   0.000186   0.000002
        425    17   -1.949224   -1.949771    0.000547   1.000   0.000186   0.000002
        426    17   -1.949224   -1.949769    0.000546   1.000   0.000186   0.000002
        427    18   -1.949223   -1.949768    0.000545   1.000   0.000185   0.000002
        428    15   -1.949223   -1.949766    0.000543   1.000   0.000185   0.000002
        429    18   -1.949223   -1.949765    0.000542   1.000   0.000185   0.000002
        430    17   -1.949223   -1.949764    0.000541   1.000   0.000184   0.000002
        431    18   -1.949223   -1.949762    0.000540   1.000   0.000184   0.000002
        432    17   -1.949222   -1.949761    0.000538   1.000   0.000184   0.000002
        433    18   -1.949222   -1.949759    0.000537   1.000   0.000184   0.000002
        434    16   -1.949222   -1.949758    0.000536   1.000   0.000183   0.000002
        435    18   -1.949222   -1.949756    0.000534   1.000   0.000183   0.000002
        436    17   -1.949222   -1.949755    0.000533   1.000   0.000183   0.000002
        437    16   -1.949222   -1.949754    0.000532   1.000   0.000183   0.000002
        438    17   -1.949222   -1.949752    0.000530   1.000   0.000182   0.000002
        439    18   -1.949221   -1.949751    0.000529   1.000   0.000182   0.000002
        440    16   -1.949221   -1.949749    0.000528   1.000   0.000182   0.000002
        441    18   -1.949221   -1.949748    0.000527   1.000   0.000182   0.000002
        442    17   -1.949221   -1.949746    0.000525   1.000   0.000181   0.000002
        443    16   -1.949221   -1.949745    0.000524   1.000   0.000181   0.000001
        444    17   -1.949221   -1.949744    0.000523   1.000   0.000181   0.000001
        445    18   -1.949221   -1.949742    0.000522   1.000   0.000181   0.000001
        446    16   -1.949220   -1.949741    0.000521   1.000   0.000180   0.000001
        447    18   -1.949220   -1.949740    0.000519   1.000   0.000180   0.000001
        448    17   -1.949220   -1.949738    0.000518   1.000   0.000180   0.000001
        449    16   -1.949220   -1.949737    0.000517   1.000   0.000180   0.000001
        450    17   -1.949220   -1.949736    0.000516   1.000   0.000179   0.000001
        451    18   -1.949220   -1.949734    0.000515   1.000   0.000179   0.000001
        452    16   -1.949220   -1.949733    0.000513   1.000   0.000179   0.000001
        453    18   -1.949220   -1.949732    0.000512   1.000   0.000179   0.000001
        454    17   -1.949219   -1.949730    0.000511   1.000   0.000178   0.000001
        455    16   -1.949219   -1.949729    0.000510   1.000   0.000178   0.000001
        456    18   -1.949219   -1.949728    0.000509   1.000   0.000178   0.000001
        457    17   -1.949219   -1.949726    0.000507   1.000   0.000178   0.000001
        458    17   -1.949219   -1.949725    0.000506   1.000   0.000177   0.000001
        459    17   -1.949219   -1.949724    0.000505   1.000   0.000177   0.000001
        460    18   -1.949219   -1.949722    0.000504   1.000   0.000177   0.000001
        461    16   -1.949219   -1.949721    0.000503   1.000   0.000177   0.000001
        462    18   -1.949218   -1.949720    0.000501   1.000   0.000176   0.000001
        463    17   -1.949218   -1.949719    0.000500   1.000   0.000176   0.000001
        464    16   -1.949218   -1.949717    0.000499   1.000   0.000176   0.000001
        465    17   -1.949218   -1.949716    0.000498   1.000   0.000176   0.000001
        466    18   -1.949218   -1.949715    0.000497   1.000   0.000175   0.000001
        467    17   -1.949218   -1.949713    0.000496   1.000   0.000175   0.000001
        468    17   -1.949218   -1.949712    0.000494   1.000   0.000175   0.000001
        469    18   -1.949218   -1.949711    0.000493   1.000   0.000175   0.000001
        470    17   -1.949217   -1.949710    0.000492   1.000   0.000175   0.000001
        471    18   -1.949217   -1.949708    0.000491   1.000   0.000174   0.000001
        472    17   -1.949217   -1.949707    0.000490   1.000   0.000174   0.000001
        473    18   -1.949217   -1.949706    0.000489   1.000   0.000174   0.000001
        474    16   -1.949217   -1.949705    0.000488   1.000   0.000174   0.000001
        475    18   -1.949217   -1.949703    0.000486   1.000   0.000173   0.000001
        476    17   -1.949217   -1.949702    0.000485   1.000   0.000173   0.000001
        477    17   -1.949217   -1.949701    0.000484   1.000   0.000173   0.000001
        478    17   -1.949217   -1.949700    0.000483   1.000   0.000173   0.000001
        479    18   -1.949216   -1.949698    0.000482   1.000   0.000172   0.000001
        480    16   -1.949216   -1.949697    0.000481   1.000   0.000172   0.000001
        481    18   -1.949216   -1.949696    0.000480   1.000   0.000172   0.000001
        482    17   -1.949216   -1.949695    0.000479   1.000   0.000172   0.000001
        483    16   -1.949216   -1.949693    0.000477   1.000   0.000171   0.000001
        484    18   -1.949216   -1.949692    0.000476   1.000   0.000171   0.000001
        485    17   -1.949216   -1.949691    0.000475   1.000   0.000171   0.000001
        486    16   -1.949216   -1.949690    0.000474   1.000   0.000171   0.000001
        487    17   -1.949216   -1.949689    0.000473   1.000   0.000171   0.000001
        488    18   -1.949215   -1.949687    0.000472   1.000   0.000170   0.000001
        489    17   -1.949215   -1.949686    0.000471   1.000   0.000170   0.000001
        490    15   -1.949215   -1.949685    0.000470   1.000   0.000170   0.000001
        491    18   -1.949215   -1.949684    0.000469   1.000   0.000170   0.000001
        492    17   -1.949215   -1.949683    0.000468   1.000   0.000169   0.000001
        493    16   -1.949215   -1.949682    0.000467   1.000   0.000169   0.000001
        494    17   -1.949215   -1.949680    0.000465   1.000   0.000169   0.000001
        495    18   -1.949215   -1.949679    0.000464   1.000   0.000169   0.000001
        496    17   -1.949215   -1.949678    0.000463   1.000   0.000169   0.000001
        497    18   -1.949215   -1.949677    0.000462   1.000   0.000168   0.000001
        498    17   -1.949214   -1.949676    0.000461   1.000   0.000168   0.000001
        499    15   -1.949214   -1.949674    0.000460   1.000   0.000168   0.000001

        ==> Orbital Optimization <==

            Orbital Optimization converged in   3 iterations 
            Total energy change: -2.362941e-05
            Final gradient norm: 4.043299e-05

        500    18   -1.949238   -1.949673    0.000435   1.000   0.000168   0.000001
        501    17   -1.949437   -1.948906    0.000531   1.000   0.000166   0.000031
        502    12   -1.949465   -1.949455    0.000010   1.000   0.000166   0.000016
        503    18   -1.949405   -1.949755    0.000349   1.000   0.000165   0.000018
        504    14   -1.949340   -1.949835    0.000494   1.000   0.000167   0.000016
        505    15   -1.949305   -1.949816    0.000511   1.000   0.000168   0.000010
        506    17   -1.949297   -1.949798    0.000501   1.000   0.000167   0.000008
        507    18   -1.949300   -1.949820    0.000520   1.000   0.000167   0.000007
        508    16   -1.949296   -1.949870    0.000574   1.000   0.000166   0.000006
        509    17   -1.949281   -1.949917    0.000636   1.000   0.000165   0.000005
        510    18   -1.949258   -1.949937    0.000679   1.000   0.000165   0.000005
        511    15   -1.949233   -1.949922    0.000689   1.000   0.000165   0.000004
        512    17   -1.949212   -1.949878    0.000666   1.000   0.000164   0.000003
        513    18   -1.949198   -1.949817    0.000619   1.000   0.000164   0.000003
        514    17   -1.949192   -1.949751    0.000558   1.000   0.000164   0.000002
        515    16   -1.949193   -1.949687    0.000495   1.000   0.000164   0.000001
        516    18   -1.949198   -1.949633    0.000434   1.000   0.000164   0.000001
        517    17   -1.949208   -1.949589    0.000381   1.000   0.000163   0.000001
        518    15   -1.949220   -1.949559    0.000339   1.000   0.000163   0.000002
        519    18   -1.949233   -1.949542    0.000309   1.000   0.000163   0.000002
        520    17   -1.949246   -1.949539    0.000293   1.000   0.000163   0.000002
        521    18   -1.949258   -1.949548    0.000290   1.000   0.000163   0.000002
        522    17   -1.949268   -1.949567    0.000300   1.000   0.000162   0.000002
        523    18   -1.949275   -1.949594    0.000319   1.000   0.000162   0.000001
        524    17   -1.949279   -1.949625    0.000346   1.000   0.000162   0.000001
        525    17   -1.949280   -1.949657    0.000377   1.000   0.000162   0.000001
        526    18   -1.949278   -1.949687    0.000409   1.000   0.000162   0.000001
        527    17   -1.949274   -1.949712    0.000438   1.000   0.000161   0.000001
        528    17   -1.949267   -1.949730    0.000463   1.000   0.000161   0.000001
        529    17   -1.949260   -1.949741    0.000481   1.000   0.000161   0.000002
        530    18   -1.949252   -1.949743    0.000491   1.000   0.000161   0.000002
        531    17   -1.949245   -1.949738    0.000493   1.000   0.000160   0.000002
        532    17   -1.949239   -1.949727    0.000488   1.000   0.000160   0.000001
        533    18   -1.949234   -1.949711    0.000477   1.000   0.000160   0.000001
        534    17   -1.949231   -1.949693    0.000461   1.000   0.000160   0.000001
        535    17   -1.949230   -1.949673    0.000443   1.000   0.000160   0.000001
        536    17   -1.949230   -1.949654    0.000424   1.000   0.000159   0.000001
        537    18   -1.949232   -1.949638    0.000405   1.000   0.000159   0.000001
        538    15   -1.949235   -1.949625    0.000389   1.000   0.000159   0.000001
        539    18   -1.949239   -1.949616    0.000377   1.000   0.000159   0.000001
        540    18   -1.949243   -1.949611    0.000368   1.000   0.000159   0.000001
        541    17   -1.949247   -1.949611    0.000364   1.000   0.000158   0.000001
        542    18   -1.949250   -1.949615    0.000365   1.000   0.000158   0.000001
        543    17   -1.949253   -1.949621    0.000368   1.000   0.000158   0.000001
        544    15   -1.949255   -1.949630    0.000375   1.000   0.000158   0.000001
        545    18   -1.949256   -1.949639    0.000383   1.000   0.000158   0.000001
        546    17   -1.949255   -1.949648    0.000393   1.000   0.000157   0.000001
        547    18   -1.949254   -1.949656    0.000402   1.000   0.000157   0.000001
        548    17   -1.949253   -1.949663    0.000410   1.000   0.000157   0.000001
        549    18   -1.949251   -1.949667    0.000416   1.000   0.000157   0.000001
        550    17   -1.949248   -1.949668    0.000420   1.000   0.000157   0.000001
        551    18   -1.949246   -1.949668    0.000422   1.000   0.000156   0.000001
        552    17   -1.949243   -1.949665    0.000421   1.000   0.000156   0.000001
        553    18   -1.949242   -1.949660    0.000418   1.000   0.000156   0.000001
        554    17   -1.949240   -1.949654    0.000414   1.000   0.000156   0.000001
        555    18   -1.949239   -1.949647    0.000408   1.000   0.000156   0.000001
        556    17   -1.949239   -1.949641    0.000402   1.000   0.000155   0.000001
        557    18   -1.949239   -1.949634    0.000395   1.000   0.000155   0.000001
        558    17   -1.949240   -1.949629    0.000389   1.000   0.000155   0.000001
        559    15   -1.949241   -1.949625    0.000384   1.000   0.000155   0.000001
        560    18   -1.949242   -1.949622    0.000380   1.000   0.000155   0.000001
        561    17   -1.949243   -1.949620    0.000377   1.000   0.000154   0.000001
        562    16   -1.949244   -1.949620    0.000376   1.000   0.000154   0.000001
        563    18   -1.949245   -1.949620    0.000375   1.000   0.000154   0.000001
        564    17   -1.949246   -1.949622    0.000376   1.000   0.000154   0.000001
        565    16   -1.949246   -1.949624    0.000378   1.000   0.000154   0.000001
        566    17   -1.949246   -1.949626    0.000380   1.000   0.000153   0.000001
        567    18   -1.949246   -1.949629    0.000383   1.000   0.000153   0.000001
        568    17   -1.949246   -1.949630    0.000385   1.000   0.000153   0.000001
        569    18   -1.949245   -1.949631    0.000387   1.000   0.000153   0.000001
        570    17   -1.949244   -1.949632    0.000388   1.000   0.000153   0.000001
        571    16   -1.949243   -1.949632    0.000388   1.000   0.000152   0.000001
        572    18   -1.949242   -1.949630    0.000388   1.000   0.000152   0.000001
        573    17   -1.949242   -1.949629    0.000387   1.000   0.000152   0.000001
        574    16   -1.949241   -1.949626    0.000386   1.000   0.000152   0.000001
        575    18   -1.949241   -1.949624    0.000383   1.000   0.000152   0.000001
        576    17   -1.949240   -1.949621    0.000381   1.000   0.000151   0.000001
        577    16   -1.949240   -1.949618    0.000378   1.000   0.000151   0.000001
        578    18   -1.949240   -1.949616    0.000376   1.000   0.000151   0.000001
        579    17   -1.949240   -1.949614    0.000373   1.000   0.000151   0.000001
        580    18   -1.949241   -1.949612    0.000371   1.000   0.000151   0.000001
        581    17   -1.949241   -1.949610    0.000370   1.000   0.000151   0.000001
        582    18   -1.949241   -1.949609    0.000368   1.000   0.000150   0.000001
        583    17   -1.949241   -1.949609    0.000368   1.000   0.000150   0.000001
        584    18   -1.949242   -1.949609    0.000367   1.000   0.000150   0.000001
        585    17   -1.949242   -1.949609    0.000367   1.000   0.000150   0.000001
        586    17   -1.949242   -1.949609    0.000367   1.000   0.000150   0.000001
        587    17   -1.949242   -1.949609    0.000367   1.000   0.000149   0.000001
        588    18   -1.949241   -1.949609    0.000367   1.000   0.000149   0.000001
        589    17   -1.949241   -1.949609    0.000367   1.000   0.000149   0.000001
        590    17   -1.949241   -1.949608    0.000367   1.000   0.000149   0.000001
        591    18   -1.949241   -1.949608    0.000367   1.000   0.000149   0.000001
        592    17   -1.949240   -1.949607    0.000367   1.000   0.000148   0.000001
        593    18   -1.949240   -1.949606    0.000366   1.000   0.000148   0.000001
        594    17   -1.949240   -1.949605    0.000365   1.000   0.000148   0.000001
        595    18   -1.949239   -1.949604    0.000364   1.000   0.000148   0.000001
        596    17   -1.949239   -1.949602    0.000363   1.000   0.000148   0.000001
        597    18   -1.949239   -1.949601    0.000362   1.000   0.000148   0.000001
        598    18   -1.949239   -1.949599    0.000360   1.000   0.000147   0.000001
        599    18   -1.949239   -1.949598    0.000359   1.000   0.000147   0.000001
        600    16   -1.949239   -1.949597    0.000358   1.000   0.000147   0.000001
        601    18   -1.949239   -1.949596    0.000357   1.000   0.000147   0.000001
        602    17   -1.949239   -1.949595    0.000356   1.000   0.000147   0.000001
        603    15   -1.949239   -1.949594    0.000355   1.000   0.000146   0.000001
        604    18   -1.949239   -1.949593    0.000354   1.000   0.000146   0.000001
        605    17   -1.949239   -1.949592    0.000353   1.000   0.000146   0.000001
        606    16   -1.949239   -1.949592    0.000353   1.000   0.000146   0.000001
        607    18   -1.949239   -1.949591    0.000352   1.000   0.000146   0.000001
        608    17   -1.949239   -1.949591    0.000352   1.000   0.000146   0.000001
        609    18   -1.949239   -1.949590    0.000351   1.000   0.000145   0.000001
        610    17   -1.949239   -1.949589    0.000351   1.000   0.000145   0.000001
        611    17   -1.949238   -1.949589    0.000350   1.000   0.000145   0.000001
        612    18   -1.949238   -1.949588    0.000350   1.000   0.000145   0.000001
        613    17   -1.949238   -1.949587    0.000349   1.000   0.000145   0.000001
        614    17   -1.949238   -1.949586    0.000348   1.000   0.000145   0.000001
        615    17   -1.949238   -1.949585    0.000348   1.000   0.000144   0.000001
        616    18   -1.949238   -1.949584    0.000347   1.000   0.000144   0.000001
        617    17   -1.949237   -1.949583    0.000346   1.000   0.000144   0.000001
        618    18   -1.949237   -1.949582    0.000345   1.000   0.000144   0.000001
        619    18   -1.949237   -1.949581    0.000344   1.000   0.000144   0.000001
        620    17   -1.949237   -1.949580    0.000343   1.000   0.000143   0.000001
        621    18   -1.949237   -1.949579    0.000342   1.000   0.000143   0.000001
        622    17   -1.949237   -1.949579    0.000341   1.000   0.000143   0.000001
        623    17   -1.949237   -1.949578    0.000341   1.000   0.000143   0.000001
        624    18   -1.949237   -1.949577    0.000340   1.000   0.000143   0.000001
        625    17   -1.949237   -1.949576    0.000339   1.000   0.000143   0.000001
        626    18   -1.949237   -1.949575    0.000338   1.000   0.000142   0.000001
        627    17   -1.949237   -1.949575    0.000338   1.000   0.000142   0.000001
        628    18   -1.949237   -1.949574    0.000337   1.000   0.000142   0.000001
        629    17   -1.949237   -1.949573    0.000337   1.000   0.000142   0.000001
        630    18   -1.949237   -1.949572    0.000336   1.000   0.000142   0.000001
        631    17   -1.949236   -1.949572    0.000335   1.000   0.000142   0.000001
        632    17   -1.949236   -1.949571    0.000335   1.000   0.000141   0.000001
        633    17   -1.949236   -1.949570    0.000334   1.000   0.000141   0.000001
        634    18   -1.949236   -1.949569    0.000333   1.000   0.000141   0.000001
        635    17   -1.949236   -1.949569    0.000333   1.000   0.000141   0.000001
        636    18   -1.949236   -1.949568    0.000332   1.000   0.000141   0.000001
        637    17   -1.949236   -1.949567    0.000331   1.000   0.000141   0.000001
        638    18   -1.949236   -1.949566    0.000330   1.000   0.000140   0.000001
        639    17   -1.949236   -1.949565    0.000330   1.000   0.000140   0.000001
        640    18   -1.949236   -1.949564    0.000329   1.000   0.000140   0.000001
        641    17   -1.949236   -1.949564    0.000328   1.000   0.000140   0.000001
        642    18   -1.949235   -1.949563    0.000327   1.000   0.000140   0.000001
        643    17   -1.949235   -1.949562    0.000327   1.000   0.000140   0.000001
        644    18   -1.949235   -1.949561    0.000326   1.000   0.000139   0.000001
        645    17   -1.949235   -1.949560    0.000325   1.000   0.000139   0.000001
        646    15   -1.949235   -1.949560    0.000325   1.000   0.000139   0.000001
        647    18   -1.949235   -1.949559    0.000324   1.000   0.000139   0.000001
        648    17   -1.949235   -1.949558    0.000323   1.000   0.000139   0.000001
        649    16   -1.949235   -1.949557    0.000323   1.000   0.000139   0.000001
        650    18   -1.949235   -1.949557    0.000322   1.000   0.000138   0.000001
        651    17   -1.949235   -1.949556    0.000321   1.000   0.000138   0.000001
        652    17   -1.949235   -1.949555    0.000321   1.000   0.000138   0.000001
        653    17   -1.949235   -1.949555    0.000320   1.000   0.000138   0.000001
        654    18   -1.949235   -1.949554    0.000319   1.000   0.000138   0.000001
        655    16   -1.949234   -1.949553    0.000319   1.000   0.000138   0.000001
        656    18   -1.949234   -1.949552    0.000318   1.000   0.000137   0.000001
        657    17   -1.949234   -1.949551    0.000317   1.000   0.000137   0.000001
        658    15   -1.949234   -1.949551    0.000317   1.000   0.000137   0.000001
        659    18   -1.949234   -1.949550    0.000316   1.000   0.000137   0.000001
        660    17   -1.949234   -1.949549    0.000315   1.000   0.000137   0.000001
        661    16   -1.949234   -1.949548    0.000314   1.000   0.000137   0.000001
        662    18   -1.949234   -1.949548    0.000314   1.000   0.000136   0.000001
        663    17   -1.949234   -1.949547    0.000313   1.000   0.000136   0.000001
        664    17   -1.949234   -1.949546    0.000312   1.000   0.000136   0.000001
        665    17   -1.949234   -1.949545    0.000312   1.000   0.000136   0.000001
        666    18   -1.949234   -1.949545    0.000311   1.000   0.000136   0.000001
        667    16   -1.949234   -1.949544    0.000310   1.000   0.000136   0.000001
        668    18   -1.949233   -1.949543    0.000310   1.000   0.000136   0.000001
        669    17   -1.949233   -1.949543    0.000309   1.000   0.000135   0.000001
        670    18   -1.949233   -1.949542    0.000308   1.000   0.000135   0.000001
        671    16   -1.949233   -1.949541    0.000308   1.000   0.000135   0.000001
        672    17   -1.949233   -1.949540    0.000307   1.000   0.000135   0.000001
        673    18   -1.949233   -1.949540    0.000307   1.000   0.000135   0.000001
        674    14   -1.949233   -1.949539    0.000306   1.000   0.000135   0.000001
        675    17   -1.949233   -1.949538    0.000305   1.000   0.000134   0.000001
        676    18   -1.949233   -1.949538    0.000305   1.000   0.000134   0.000001
        677    15   -1.949233   -1.949537    0.000304   1.000   0.000134   0.000001
        678    18   -1.949233   -1.949536    0.000303   1.000   0.000134   0.000001
        679    17   -1.949233   -1.949535    0.000303   1.000   0.000134   0.000001
        680    18   -1.949233   -1.949535    0.000302   1.000   0.000134   0.000001
        681    17   -1.949233   -1.949534    0.000301   1.000   0.000133   0.000001
        682    18   -1.949232   -1.949533    0.000301   1.000   0.000133   0.000001
        683    16   -1.949232   -1.949533    0.000300   1.000   0.000133   0.000001
        684    18   -1.949232   -1.949532    0.000299   1.000   0.000133   0.000001
        685    18   -1.949232   -1.949531    0.000299   1.000   0.000133   0.000001
        686    15   -1.949232   -1.949530    0.000298   1.000   0.000133   0.000001
        687    18   -1.949232   -1.949530    0.000298   1.000   0.000133   0.000001
        688    17   -1.949232   -1.949529    0.000297   1.000   0.000132   0.000001
        689    16   -1.949232   -1.949528    0.000296   1.000   0.000132   0.000001
        690    17   -1.949232   -1.949528    0.000296   1.000   0.000132   0.000001
        691    18   -1.949232   -1.949527    0.000295   1.000   0.000132   0.000001
        692    16   -1.949232   -1.949526    0.000294   1.000   0.000132   0.000001
        693    17   -1.949232   -1.949526    0.000294   1.000   0.000132   0.000001
        694    18   -1.949232   -1.949525    0.000293   1.000   0.000132   0.000001
        695    16   -1.949232   -1.949524    0.000293   1.000   0.000131   0.000001
        696    18   -1.949232   -1.949524    0.000292   1.000   0.000131   0.000001
        697    18   -1.949232   -1.949523    0.000291   1.000   0.000131   0.000001
        698    16   -1.949231   -1.949522    0.000291   1.000   0.000131   0.000001
        699    18   -1.949231   -1.949522    0.000290   1.000   0.000131   0.000001
        700    17   -1.949231   -1.949521    0.000290   1.000   0.000131   0.000001
        701    15   -1.949231   -1.949520    0.000289   1.000   0.000130   0.000001
        702    18   -1.949231   -1.949520    0.000288   1.000   0.000130   0.000001
        703    17   -1.949231   -1.949519    0.000288   1.000   0.000130   0.000001
        704    17   -1.949231   -1.949518    0.000287   1.000   0.000130   0.000001
        705    18   -1.949231   -1.949518    0.000287   1.000   0.000130   0.000001
        706    17   -1.949231   -1.949517    0.000286   1.000   0.000130   0.000001
        707    17   -1.949231   -1.949516    0.000285   1.000   0.000130   0.000001
        708    17   -1.949231   -1.949516    0.000285   1.000   0.000129   0.000001
        709    18   -1.949231   -1.949515    0.000284   1.000   0.000129   0.000001
        710    16   -1.949231   -1.949514    0.000284   1.000   0.000129   0.000001
        711    18   -1.949231   -1.949514    0.000283   1.000   0.000129   0.000001
        712    17   -1.949231   -1.949513    0.000282   1.000   0.000129   0.000001
        713    15   -1.949231   -1.949512    0.000282   1.000   0.000129   0.000001
        714    18   -1.949230   -1.949512    0.000281   1.000   0.000129   0.000001
        715    17   -1.949230   -1.949511    0.000281   1.000   0.000128   0.000001
        716    18   -1.949230   -1.949510    0.000280   1.000   0.000128   0.000001
        717    17   -1.949230   -1.949510    0.000279   1.000   0.000128   0.000001
        718    18   -1.949230   -1.949509    0.000279   1.000   0.000128   0.000001
        719    17   -1.949230   -1.949508    0.000278   1.000   0.000128   0.000001
        720    18   -1.949230   -1.949508    0.000278   1.000   0.000128   0.000001
        721    17   -1.949230   -1.949507    0.000277   1.000   0.000128   0.000001
        722    18   -1.949230   -1.949506    0.000276   1.000   0.000127   0.000001
        723    17   -1.949230   -1.949506    0.000276   1.000   0.000127   0.000001
        724    18   -1.949230   -1.949505    0.000275   1.000   0.000127   0.000001
        725    17   -1.949230   -1.949505    0.000275   1.000   0.000127   0.000001
        726    17   -1.949230   -1.949504    0.000274   1.000   0.000127   0.000001
        727    18   -1.949230   -1.949503    0.000274   1.000   0.000127   0.000001
        728    17   -1.949230   -1.949503    0.000273   1.000   0.000127   0.000001
        729    17   -1.949230   -1.949502    0.000272   1.000   0.000126   0.000001
        730    18   -1.949230   -1.949501    0.000272   1.000   0.000126   0.000001
        731    18   -1.949229   -1.949501    0.000271   1.000   0.000126   0.000001
        732    16   -1.949229   -1.949500    0.000271   1.000   0.000126   0.000001
        733    18   -1.949229   -1.949500    0.000270   1.000   0.000126   0.000001
        734    17   -1.949229   -1.949499    0.000270   1.000   0.000126   0.000001
        735    18   -1.949229   -1.949498    0.000269   1.000   0.000126   0.000001
        736    17   -1.949229   -1.949498    0.000268   1.000   0.000125   0.000001
        737    18   -1.949229   -1.949497    0.000268   1.000   0.000125   0.000001
        738    17   -1.949229   -1.949496    0.000267   1.000   0.000125   0.000001
        739    18   -1.949229   -1.949496    0.000267   1.000   0.000125   0.000001
        740    17   -1.949229   -1.949495    0.000266   1.000   0.000125   0.000001
        741    18   -1.949229   -1.949495    0.000266   1.000   0.000125   0.000001
        742    17   -1.949229   -1.949494    0.000265   1.000   0.000125   0.000001
        743    18   -1.949229   -1.949493    0.000265   1.000   0.000124   0.000001
        744    17   -1.949229   -1.949493    0.000264   1.000   0.000124   0.000001
        745    18   -1.949229   -1.949492    0.000263   1.000   0.000124   0.000001
        746    17   -1.949229   -1.949492    0.000263   1.000   0.000124   0.000001
        747    17   -1.949229   -1.949491    0.000262   1.000   0.000124   0.000001
        748    18   -1.949229   -1.949490    0.000262   1.000   0.000124   0.000001
        749    17   -1.949229   -1.949490    0.000261   1.000   0.000124   0.000001
        750    18   -1.949228   -1.949489    0.000261   1.000   0.000124   0.000001
        751    16   -1.949228   -1.949489    0.000260   1.000   0.000123   0.000001
        752    17   -1.949228   -1.949488    0.000260   1.000   0.000123   0.000001
        753    18   -1.949228   -1.949487    0.000259   1.000   0.000123   0.000001
        754    17   -1.949228   -1.949487    0.000259   1.000   0.000123   0.000001
        755    18   -1.949228   -1.949486    0.000258   1.000   0.000123   0.000001
        756    18   -1.949228   -1.949486    0.000257   1.000   0.000123   0.000001
        757    18   -1.949228   -1.949485    0.000257   1.000   0.000123   0.000001
        758    17   -1.949228   -1.949484    0.000256   1.000   0.000122   0.000001
        759    18   -1.949228   -1.949484    0.000256   1.000   0.000122   0.000001
        760    16   -1.949228   -1.949483    0.000255   1.000   0.000122   0.000001
        761    18   -1.949228   -1.949483    0.000255   1.000   0.000122   0.000001
        762    17   -1.949228   -1.949482    0.000254   1.000   0.000122   0.000001
        763    17   -1.949228   -1.949482    0.000254   1.000   0.000122   0.000001
        764    17   -1.949228   -1.949481    0.000253   1.000   0.000122   0.000001
        765    18   -1.949228   -1.949480    0.000253   1.000   0.000122   0.000001
        766    16   -1.949228   -1.949480    0.000252   1.000   0.000121   0.000001
        767    18   -1.949228   -1.949479    0.000252   1.000   0.000121   0.000001
        768    18   -1.949228   -1.949479    0.000251   1.000   0.000121   0.000001
        769    17   -1.949227   -1.949478    0.000251   1.000   0.000121   0.000001
        770    18   -1.949227   -1.949478    0.000250   1.000   0.000121   0.000001
        771    17   -1.949227   -1.949477    0.000250   1.000   0.000121   0.000001
        772    18   -1.949227   -1.949476    0.000249   1.000   0.000121   0.000001
        773    17   -1.949227   -1.949476    0.000249   1.000   0.000120   0.000001
        774    18   -1.949227   -1.949475    0.000248   1.000   0.000120   0.000001
[...]
    7     0.99997438551848     0.01212457857260     0.00152995840063    -0.06255130034449     0.00153016904639
    8    -0.99997720895320    -0.00019554359281     0.01121495468721     0.20848626403879    -0.01121436175626
    9    -0.00354740305738    -0.84156798187698     0.99996199952209    -0.28477528353667    -1.00000000000000
   10    -0.01037062813739    -0.67508546516741    -0.99999360708853     0.45948025753076    -1.00000000000000
   11    -0.01212449482213    -1.00000000000000     0.73187795913893     0.06255348099760     0.73184854992732
   12    -0.00019596768539    -1.00000000000000    -0.84320560036088     0.20845824161535     0.84316800507264

                11                  12

    1    -0.00000000813935     0.00036469219378
    2    -0.00000000370644    -0.00086110520776
    3    -0.00000003173116    -0.00228855648373
    4     0.00000015371921     1.00000000000000
    5     0.00354740305738     0.28477528353668
    6     0.01037062813739    -0.45948025753077
    7     0.01212449482213    -0.06255348099760
    8     0.00019596768538    -0.20845824161545
    9     0.84159500643818     0.28483644049176
   10    -0.67513264939228     0.45954820003364
   11    -0.99997438551848     0.06255130034445
   12     0.99997720895321    -0.20848626403876



Cmat is  Irrep: 1 Size: 12 x 12

                 1                   2                   3                   4                   5

    1     1.00000000000000     0.00000000813939    -0.00000000094053     0.00919693086136    -0.00000000036936
    2    -0.00919693086136     0.00000000370648    -0.00000000036927    -1.00000000000000    -0.00000000094080
    3     0.00097622054842     0.00000003170900    -0.00000134191391    -0.00040789463925     0.00000000385873
    4    -0.00040789463924    -0.00000015365661    -0.00000000385766     0.00097622054842     0.00000134182032
    5     0.05145063719243     0.84156798187698     1.00000000000000    -0.05145005354426    -0.99996199952208
    6     0.07210877298611     0.67508546516741     1.00000000000000     0.07210958276428     0.99999360708853
    7     0.03204779327226     1.00000000000000    -0.73184854992732     0.03204801242681    -0.73187795913894
    8    -0.01158339622033     1.00000000000000    -0.84316800507264     0.01158364722657     0.84320560036087
    9     0.05145005354426     0.00354740592386    -0.00993209930136    -0.05145063719243     0.00993333645652
   10    -0.07210958276428    -0.01037054736821     0.01379418003341    -0.07210877298611     0.01379563823631
   11    -0.03204801242681    -0.01212457857260    -0.00153016904639    -0.03204779327226    -0.00152995840063
   12    -0.01158364722657     0.00019554359281     0.01121436175626     0.01158339622033    -0.01121495468721

                 6                   7                   8                   9                  10

    1     0.00000000370644    -0.00000000370648     0.00000000094080     0.00086110520776     0.00000000036927
    2     0.00000000813935    -0.00000000813939     0.00000000036936    -0.00036469219378     0.00000000094053
    3     0.00000015371921    -0.00000015365661     0.00000134182032     1.00000000000000    -0.00000000385766
    4    -0.00000003173116     0.00000003170900     0.00000000385873    -0.00228855648373    -0.00000134191391
    5    -0.84159500643817    -0.00354740592386    -0.00993333645652    -0.28483644049183     0.00993209930136
    6     0.67513264939228     0.01037054736821    -0.01379563823631    -0.45954820003357    -0.01379418003341
    7     0.99997438551848     0.01212457857260     0.00152995840063    -0.06255130034449     0.00153016904639
    8    -0.99997720895320    -0.00019554359281     0.01121495468721     0.20848626403879    -0.01121436175626
    9    -0.00354740305738    -0.84156798187698     0.99996199952209    -0.28477528353667    -1.00000000000000
   10    -0.01037062813739    -0.67508546516741    -0.99999360708853     0.45948025753076    -1.00000000000000
   11    -0.01212449482213    -1.00000000000000     0.73187795913893     0.06255348099760     0.73184854992732
   12    -0.00019596768539    -1.00000000000000    -0.84320560036088     0.20845824161535     0.84316800507264

                11                  12

    1    -0.00000000813935     0.00036469219378
    2    -0.00000000370644    -0.00086110520776
    3    -0.00000003173116    -0.00228855648373
    4     0.00000015371921     1.00000000000000
    5     0.00354740305738     0.28477528353668
    6     0.01037062813739    -0.45948025753077
    7     0.01212449482213    -0.06255348099760
    8     0.00019596768538    -0.20845824161545
    9     0.84159500643818     0.28483644049176
   10    -0.67513264939228     0.45954820003364
   11    -0.99997438551848     0.06255130034445
   12     0.99997720895321    -0.20848626403876



exitation energy      1.583055394421
norm is       1.844076756633

 Normalized eigenvector
  Irrep: 1 Size: 12 x 12

                 1                   2                   3                   4                   5

    1     1.00000000000000     0.00000000813939    -0.00000000094053     0.00919693086136    -0.00000000036936
    2    -0.00919693086136     0.00000000370648    -0.00000000036927    -1.00000000000000    -0.00000000094080
    3     0.00097622054842     0.00000003170900    -0.00000134191391    -0.00040789463925     0.00000000385873
    4    -0.00040789463924    -0.00000015365661    -0.00000000385766     0.00097622054842     0.00000134182032
    5     0.05145063719243     0.84156798187698     1.00000000000000    -0.05145005354426    -0.99996199952208
    6     0.07210877298611     0.67508546516741     1.00000000000000     0.07210958276428     0.99999360708853
    7     0.03204779327226     1.00000000000000    -0.73184854992732     0.03204801242681    -0.73187795913894
    8    -0.01158339622033     1.00000000000000    -0.84316800507264     0.01158364722657     0.84320560036087
    9     0.05145005354426     0.00354740592386    -0.00993209930136    -0.05145063719243     0.00993333645652
   10    -0.07210958276428    -0.01037054736821     0.01379418003341    -0.07210877298611     0.01379563823631
   11    -0.03204801242681    -0.01212457857260    -0.00153016904639    -0.03204779327226    -0.00152995840063
   12    -0.00628154288313     0.00010603874926     0.00608128794852     0.00628140676828    -0.00608160948120

                 6                   7                   8                   9                  10

    1     0.00000000370644    -0.00000000370648     0.00000000094080     0.00086110520776     0.00000000036927
    2     0.00000000813935    -0.00000000813939     0.00000000036936    -0.00036469219378     0.00000000094053
    3     0.00000015371921    -0.00000015365661     0.00000134182032     1.00000000000000    -0.00000000385766
    4    -0.00000003173116     0.00000003170900     0.00000000385873    -0.00228855648373    -0.00000134191391
    5    -0.84159500643817    -0.00354740592386    -0.00993333645652    -0.28483644049183     0.00993209930136
    6     0.67513264939228     0.01037054736821    -0.01379563823631    -0.45954820003357    -0.01379418003341
    7     0.99997438551848     0.01212457857260     0.00152995840063    -0.06255130034449     0.00153016904639
    8    -0.99997720895320    -0.00019554359281     0.01121495468721     0.20848626403879    -0.01121436175626
    9    -0.00354740305738    -0.84156798187698     0.99996199952209    -0.28477528353667    -1.00000000000000
   10    -0.01037062813739    -0.67508546516741    -0.99999360708853     0.45948025753076    -1.00000000000000
   11    -0.01212449482213    -1.00000000000000     0.73187795913893     0.06255348099760     0.73184854992732
   12    -0.00010626872481    -0.54227677693088    -0.45725081525376     0.11304206338785     0.45723042820203

                11                  12

    1    -0.00000000813935     0.00036469219378
    2    -0.00000000370644    -0.00086110520776
    3    -0.00000003173116    -0.00228855648373
    4     0.00000015371921     1.00000000000000
    5     0.00354740305738     0.28477528353668
    6     0.01037062813739    -0.45948025753077
    7     0.01212449482213    -0.06255348099760
    8     0.00019596768538    -0.20845824161545
    9     0.84159500643818     0.28483644049176
   10    -0.67513264939228     0.45954820003364
   11    -0.99997438551848     0.06255130034445
   12     0.54226441787548    -0.11305725929730



exitation energy      2.044552622241
norm is       1.747008824826

 Normalized eigenvector
  Irrep: 1 Size: 12 x 12

                 1                   2                   3                   4                   5

    1     1.00000000000000     0.00000000813939    -0.00000000094053     0.00919693086136    -0.00000000036936
    2    -0.00919693086136     0.00000000370648    -0.00000000036927    -1.00000000000000    -0.00000000094080
    3     0.00097622054842     0.00000003170900    -0.00000134191391    -0.00040789463925     0.00000000385873
    4    -0.00040789463924    -0.00000015365661    -0.00000000385766     0.00097622054842     0.00000134182032
    5     0.05145063719243     0.84156798187698     1.00000000000000    -0.05145005354426    -0.99996199952208
    6     0.07210877298611     0.67508546516741     1.00000000000000     0.07210958276428     0.99999360708853
    7     0.03204779327226     1.00000000000000    -0.73184854992732     0.03204801242681    -0.73187795913894
    8    -0.01158339622033     1.00000000000000    -0.84316800507264     0.01158364722657     0.84320560036087
    9     0.05145005354426     0.00354740592386    -0.00993209930136    -0.05145063719243     0.00993333645652
   10    -0.07210958276428    -0.01037054736821     0.01379418003341    -0.07210877298611     0.01379563823631
   11    -0.01834450517443    -0.00694019308907    -0.00087587940292    -0.01834437972885    -0.00087575882782
   12    -0.00628154288313     0.00010603874926     0.00608128794852     0.00628140676828    -0.00608160948120

                 6                   7                   8                   9                  10

    1     0.00000000370644    -0.00000000370648     0.00000000094080     0.00086110520776     0.00000000036927
    2     0.00000000813935    -0.00000000813939     0.00000000036936    -0.00036469219378     0.00000000094053
    3     0.00000015371921    -0.00000015365661     0.00000134182032     1.00000000000000    -0.00000000385766
    4    -0.00000003173116     0.00000003170900     0.00000000385873    -0.00228855648373    -0.00000134191391
    5    -0.84159500643817    -0.00354740592386    -0.00993333645652    -0.28483644049183     0.00993209930136
    6     0.67513264939228     0.01037054736821    -0.01379563823631    -0.45954820003357    -0.01379418003341
    7     0.99997438551848     0.01212457857260     0.00152995840063    -0.06255130034449     0.00153016904639
    8    -0.99997720895320    -0.00019554359281     0.01121495468721     0.20848626403879    -0.01121436175626
    9    -0.00354740305738    -0.84156798187698     0.99996199952209    -0.28477528353667    -1.00000000000000
   10    -0.01037062813739    -0.67508546516741    -0.99999360708853     0.45948025753076    -1.00000000000000
   11    -0.00694014514972    -0.57240695398288     0.41893203327792     0.03580604751886     0.41891519924068
   12    -0.00010626872481    -0.54227677693088    -0.45725081525376     0.11304206338785     0.45723042820203

                11                  12

    1    -0.00000000813935     0.00036469219378
    2    -0.00000000370644    -0.00086110520776
    3    -0.00000003173116    -0.00228855648373
    4     0.00000015371921     1.00000000000000
    5     0.00354740305738     0.28477528353668
    6     0.01037062813739    -0.45948025753077
    7     0.01212449482213    -0.06255348099760
    8     0.00019596768538    -0.20845824161545
    9     0.84159500643818     0.28483644049176
   10    -0.67513264939228     0.45954820003364
   11    -0.57239229207554     0.03580479929783
   12     0.54226441787548    -0.11305725929730



exitation energy      2.997882071218
norm is       1.700899880152

 Normalized eigenvector
  Irrep: 1 Size: 12 x 12

                 1                   2                   3                   4                   5

    1     1.00000000000000     0.00000000813939    -0.00000000094053     0.00919693086136    -0.00000000036936
    2    -0.00919693086136     0.00000000370648    -0.00000000036927    -1.00000000000000    -0.00000000094080
    3     0.00097622054842     0.00000003170900    -0.00000134191391    -0.00040789463925     0.00000000385873
    4    -0.00040789463924    -0.00000015365661    -0.00000000385766     0.00097622054842     0.00000134182032
    5     0.05145063719243     0.84156798187698     1.00000000000000    -0.05145005354426    -0.99996199952208
    6     0.07210877298611     0.67508546516741     1.00000000000000     0.07210958276428     0.99999360708853
    7     0.03204779327226     1.00000000000000    -0.73184854992732     0.03204801242681    -0.73187795913894
    8    -0.01158339622033     1.00000000000000    -0.84316800507264     0.01158364722657     0.84320560036087
    9     0.05145005354426     0.00354740592386    -0.00993209930136    -0.05145063719243     0.00993333645652
   10    -0.04239496022413    -0.00609709453756     0.00810993062812    -0.04239448413605     0.00811078794072
   11    -0.01834450517443    -0.00694019308907    -0.00087587940292    -0.01834437972885    -0.00087575882782
   12    -0.00628154288313     0.00010603874926     0.00608128794852     0.00628140676828    -0.00608160948120

                 6                   7                   8                   9                  10

    1     0.00000000370644    -0.00000000370648     0.00000000094080     0.00086110520776     0.00000000036927
    2     0.00000000813935    -0.00000000813939     0.00000000036936    -0.00036469219378     0.00000000094053
    3     0.00000015371921    -0.00000015365661     0.00000134182032     1.00000000000000    -0.00000000385766
    4    -0.00000003173116     0.00000003170900     0.00000000385873    -0.00228855648373    -0.00000134191391
    5    -0.84159500643817    -0.00354740592386    -0.00993333645652    -0.28483644049183     0.00993209930136
    6     0.67513264939228     0.01037054736821    -0.01379563823631    -0.45954820003357    -0.01379418003341
    7     0.99997438551848     0.01212457857260     0.00152995840063    -0.06255130034449     0.00153016904639
    8    -0.99997720895320    -0.00019554359281     0.01121495468721     0.20848626403879    -0.01121436175626
    9    -0.00354740305738    -0.84156798187698     0.99996199952209    -0.28477528353667    -1.00000000000000
   10    -0.00609714202371    -0.39689900213709    -0.58792032309344     0.27013950844050    -0.58792408164004
   11    -0.00694014514972    -0.57240695398288     0.41893203327792     0.03580604751886     0.41891519924068
   12    -0.00010626872481    -0.54227677693088    -0.45725081525376     0.11304206338785     0.45723042820203

                11                  12

    1    -0.00000000813935     0.00036469219378
    2    -0.00000000370644    -0.00086110520776
    3    -0.00000003173116    -0.00228855648373
    4     0.00000015371921     1.00000000000000
    5     0.00354740305738     0.28477528353668
    6     0.01037062813739    -0.45948025753077
    7     0.01212449482213    -0.06255348099760
    8     0.00019596768538    -0.20845824161545
    9     0.84159500643818     0.28483644049176
   10    -0.39692674287916     0.27017945347411
   11    -0.57239229207554     0.03580479929783
   12     0.54226441787548    -0.11305725929730



exitation energy      3.403607541835
norm is       1.842618211303

 Normalized eigenvector
  Irrep: 1 Size: 12 x 12

                 1                   2                   3                   4                   5

    1     1.00000000000000     0.00000000813939    -0.00000000094053     0.00919693086136    -0.00000000036936
    2    -0.00919693086136     0.00000000370648    -0.00000000036927    -1.00000000000000    -0.00000000094080
    3     0.00097622054842     0.00000003170900    -0.00000134191391    -0.00040789463925     0.00000000385873
    4    -0.00040789463924    -0.00000015365661    -0.00000000385766     0.00097622054842     0.00000134182032
    5     0.05145063719243     0.84156798187698     1.00000000000000    -0.05145005354426    -0.99996199952208
    6     0.07210877298611     0.67508546516741     1.00000000000000     0.07210958276428     0.99999360708853
    7     0.03204779327226     1.00000000000000    -0.73184854992732     0.03204801242681    -0.73187795913894
    8    -0.01158339622033     1.00000000000000    -0.84316800507264     0.01158364722657     0.84320560036087
    9     0.02792225390406     0.00192519855828    -0.00539021010453    -0.02792257065344     0.00539088151609
   10    -0.04239496022413    -0.00609709453756     0.00810993062812    -0.04239448413605     0.00811078794072
   11    -0.01834450517443    -0.00694019308907    -0.00087587940292    -0.01834437972885    -0.00087575882782
   12    -0.00628154288313     0.00010603874926     0.00608128794852     0.00628140676828    -0.00608160948120

                 6                   7                   8                   9                  10

    1     0.00000000370644    -0.00000000370648     0.00000000094080     0.00086110520776     0.00000000036927
    2     0.00000000813935    -0.00000000813939     0.00000000036936    -0.00036469219378     0.00000000094053
    3     0.00000015371921    -0.00000015365661     0.00000134182032     1.00000000000000    -0.00000000385766
    4    -0.00000003173116     0.00000003170900     0.00000000385873    -0.00228855648373    -0.00000134191391
    5    -0.84159500643817    -0.00354740592386    -0.00993333645652    -0.28483644049183     0.00993209930136
    6     0.67513264939228     0.01037054736821    -0.01379563823631    -0.45954820003357    -0.01379418003341
    7     0.99997438551848     0.01212457857260     0.00152995840063    -0.06255130034449     0.00153016904639
    8    -0.99997720895320    -0.00019554359281     0.01121495468721     0.20848626403879    -0.01121436175626
    9    -0.00192519700263    -0.45672401190574     0.54268539917169    -0.15454926136612    -0.54270602225989
   10    -0.00609714202371    -0.39689900213709    -0.58792032309344     0.27013950844050    -0.58792408164004
   11    -0.00694014514972    -0.57240695398288     0.41893203327792     0.03580604751886     0.41891519924068
   12    -0.00010626872481    -0.54227677693088    -0.45725081525376     0.11304206338785     0.45723042820203

                11                  12

    1    -0.00000000813935     0.00036469219378
    2    -0.00000000370644    -0.00086110520776
    3    -0.00000003173116    -0.00228855648373
    4     0.00000015371921     1.00000000000000
    5     0.00354740305738     0.28477528353668
    6     0.01037062813739    -0.45948025753077
    7     0.01212449482213    -0.06255348099760
    8     0.00019596768538    -0.20845824161545
    9     0.45673867829786     0.15458245161395
   10    -0.39692674287916     0.27017945347411
   11    -0.57239229207554     0.03580479929783
   12     0.54226441787548    -0.11305725929730



      0.210276811039

    Reference energy                  -1.949295805215

    * AC correlation energy           -0.003666661446
    * AC total energy                 -1.952962466661


*** tstop() called on ed4 at Wed Nov  7 12:57:24 2018
Module time:
	user time   =       0.30 seconds =       0.00 minutes
	system time =       0.05 seconds =       0.00 minutes
	total time  =          0 seconds =       0.00 minutes
Total time:
	user time   =       2.55 seconds =       0.04 minutes
	system time =       0.14 seconds =       0.00 minutes
	total time  =          2 seconds =       0.03 minutes

    Psi4 stopped on: Wednesday, 07 November 2018 12:57PM
    Psi4 wall time for execution: 0:00:01.84

*** Psi4 exiting successfully. Buy a developer a beer!
