
    -----------------------------------------------------------------------
          Psi4: An Open-Source Ab Initio Electronic Structure Package
                               Psi4 1.2rc3.dev4 

                         Git: Rev {psi4_N} 0e159c1 dirty


    R. M. Parrish, L. A. Burns, D. G. A. Smith, A. C. Simmonett,
    A. E. DePrince III, E. G. Hohenstein, U. Bozkaya, A. Yu. Sokolov,
    R. Di Remigio, R. M. Richard, J. F. Gonthier, A. M. James,
    H. R. McAlexander, A. Kumar, M. Saitow, X. Wang, B. P. Pritchard,
    P. Verma, H. F. Schaefer III, K. Patkowski, R. A. King, E. F. Valeev,
    F. A. Evangelista, J. M. Turney, T. D. Crawford, and C. D. Sherrill,
    J. Chem. Theory Comput. 13(7) pp 3185--3197 (2017).
    (doi: 10.1021/acs.jctc.7b00174)

    -----------------------------------------------------------------------


    Psi4 started on: Tuesday, 06 November 2018 01:38PM

    Process ID: 29108
    Host:       ed4
    PSIDATADIR: /edfs/users/namvu/software/psi4_May_18/intel-release/share/psi4
    Memory:     500.0 MiB
    Threads:    2
    
  ==> Input File <==

--------------------------------------------------------------------------
# PYTHONPATH must include directory above plugin directory.
#     Define either externally or here, then import plugin.
sys.path.insert(0, '/edfs/users/namvu/chem')
import v2rdm_casscf
sys.path.insert(0, '/edfs/users/namvu/software')
import v2rdm_doci
sys.path.insert(0, '/edfs/users/namvu/chem/deprince-group/plugins')
import erpa

memory 8000 mb

molecule h4 {
 h
 h 1 R
 h 2 R 1 180.0
 h 3 R 2 180.0 1 180.0 
# h 4 R 3 180.0 2 180.0
# h 5 R 4 180.0 3 180.0
# h 6 R 5 180.0 4 180.0
# h 7 R 6 180.0 5 180.0
symmetry c1
}

Rvals=[1.8]

set {
  guess sad
  basis sto-3g
  scf_type df
  d_convergence 1e-8
  reference rhf
  maxiter 500
}
set v2rdm_doci {
  positivity dqgt2
  tpdm_write_full true
  r_convergence  1e-6
  e_convergence  1e-5
  maxiter 1000000
  orbopt_one_step true
}
set v2rdm_casscf {
 nat_orbs true
# tpdm_guess hf
# constrain_spin true
# cg_convergence 1e-6
}
# optimize_orbitals true
# orbopt_active_active_rotations false
# semicanonicalize_orbitals false
# mu_update_frequency 500
# restricted_docc  [ 0, 0, 0, 0, 0, 0, 0, 0 ]
# active           [ 2, 0, 0, 0, 0, 2, 0, 0 ]
# molden_write true

set erpa {
 pruning_threshold 1e-6
 spin_adapt_erpa true
 adiabatic_connection true
}
for R in Rvals:
   h4.R = R
   en, wfn = energy('v2rdm-doci',return_wfn=True)
   energy('erpa',ref_wfn=wfn)

--------------------------------------------------------------------------

  Memory set to   7.451 GiB by Python driver.
Molecule: geometry: Molecule is not complete, please use 'update_geometry'
                    once all variables are set.
Molecule: Setting geometry variable R to 1.800000

*** tstart() called on ed4
*** at Tue Nov  6 13:38:04 2018

   => Loading Basis Set <=

    Name: STO-3G
    Role: ORBITAL
    Keyword: BASIS
    atoms 1-4 entry H          line    19 file /edfs/users/namvu/software/psi4_May_18/intel-release/share/psi4/basis/sto-3g.gbs 

    There are an even number of electrons - assuming singlet.
    Specify the multiplicity in the molecule input block.


         ---------------------------------------------------------
                                   SCF
            by Justin Turney, Rob Parrish, Andy Simmonett
                             and Daniel Smith
                              RHF Reference
                        2 Threads,   7629 MiB Core
         ---------------------------------------------------------

  ==> Geometry <==

    Molecular point group: c1
    Full point group: D_inf_h

    Geometry (in Angstrom), charge = 0, multiplicity = 1:

       Center              X                  Y                   Z               Mass       
    ------------   -----------------  -----------------  -----------------  -----------------
         H            0.000000000000     0.000000000000    -2.700000000000     1.007825032070
         H            0.000000000000     0.000000000000    -0.900000000000     1.007825032070
         H            0.000000000000     0.000000000000     0.900000000000     1.007825032070
         H            0.000000000000     0.000000000000     2.700000000000     1.007825032070

  Running in c1 symmetry.

  Rotational constants: A = ************  B =      1.03251  C =      1.03251 [cm^-1]
  Rotational constants: A = ************  B =  30954.01869  C =  30954.01869 [MHz]
  Nuclear repulsion =    1.273945131790741

  Charge       = 0
  Multiplicity = 1
  Electrons    = 4
  Nalpha       = 2
  Nbeta        = 2

  ==> Algorithm <==

  SCF Algorithm Type is DF.
  DIIS enabled.
  MOM disabled.
  Fractional occupation disabled.
  Guess Type is SAD.
  Energy threshold   = 1.00e-08
  Density threshold  = 1.00e-08
  Integral threshold = 0.00e+00

  ==> Primary Basis <==

  Basis Set: STO-3G
    Blend: STO-3G
    Number of shells: 4
    Number of basis function: 4
    Number of Cartesian functions: 4
    Spherical Harmonics?: true
    Max angular momentum: 0

   => Loading Basis Set <=

    Name: (STO-3G AUX)
    Role: JKFIT
    Keyword: DF_BASIS_SCF
    atoms 1-4 entry H          line    23 file /edfs/users/namvu/software/psi4_May_18/intel-release/share/psi4/basis/def2-svp-jkfit.gbs 

  ==> Pre-Iterations <==

   -------------------------------------------------------
    Irrep   Nso     Nmo     Nalpha   Nbeta   Ndocc  Nsocc
   -------------------------------------------------------
     A          4       4       0       0       0       0
   -------------------------------------------------------
    Total       4       4       2       2       2       0
   -------------------------------------------------------

  ==> Integral Setup <==

  ==> DiskDFJK: Density-Fitted J/K Matrices <==

    J tasked:                  Yes
    K tasked:                  Yes
    wK tasked:                  No
    OpenMP threads:              2
    Integrals threads:           2
    Memory (MB):              5722
    Algorithm:                Core
    Integral Cache:           SAVE
    Schwarz Cutoff:          1E-12
    Fitting Condition:       1E-12

   => Auxiliary Basis Set <=

  Basis Set: (STO-3G AUX)
    Blend: DEF2-SVP-JKFIT
    Number of shells: 24
    Number of basis function: 72
    Number of Cartesian functions: 80
    Spherical Harmonics?: true
    Max angular momentum: 2

  Minimum eigenvalue in the overlap matrix is 7.3871915658E-01.
  Using Symmetric Orthogonalization.

  SCF Guess: Superposition of Atomic Densities via on-the-fly atomic UHF.

  ==> Iterations <==

                           Total Energy        Delta E     RMS |[F,P]|

   @DF-RHF iter   0:    -1.11793420416493   -1.11793e+00   2.13363e-04 
   @DF-RHF iter   1:    -1.66150338937195   -5.43569e-01   1.31732e-02 
   @DF-RHF iter   2:    -1.66593401179994   -4.43062e-03   4.20118e-03 DIIS
   @DF-RHF iter   3:    -1.66703919676642   -1.10518e-03   7.37602e-04 DIIS
   @DF-RHF iter   4:    -1.66705139012996   -1.21934e-05   2.65583e-05 DIIS
   @DF-RHF iter   5:    -1.66705143269863   -4.25687e-08   3.04699e-07 DIIS
   @DF-RHF iter   6:    -1.66705143270433   -5.70077e-12   2.37083e-09 DIIS

  ==> Post-Iterations <==

    Orbital Energies [Eh]
    ---------------------

    Doubly Occupied:                                                      

       1A     -0.351061     2A     -0.258400  

    Virtual:                                                              

       3A      0.084295     4A      0.222077  

    Final Occupation by Irrep:
              A 
    DOCC [     2 ]

  Energy converged.

  @DF-RHF Final Energy:    -1.66705143270433

   => Energetics <=

    Nuclear Repulsion Energy =              1.2739451317907409
    One-Electron Energy =                  -4.6630700974478323
    Two-Electron Energy =                   1.7220735329527606
    PCM Polarization Energy =               0.0000000000000000
    Total Energy =                         -1.6670514327043309

    Alert: EFP and PCM quantities not currently incorporated into SCF psivars.

Properties will be evaluated at   0.000000,   0.000000,   0.000000 [a0]

Properties computed using the SCF density matrix

  Nuclear Dipole Moment: [e a0]
     X:     0.0000      Y:     0.0000      Z:     0.0000

  Electronic Dipole Moment: [e a0]
     X:     0.0000      Y:     0.0000      Z:     0.0000

  Dipole Moment: [e a0]
     X:     0.0000      Y:     0.0000      Z:     0.0000     Total:     0.0000

  Dipole Moment: [D]
     X:     0.0000      Y:     0.0000      Z:     0.0000     Total:     0.0000


*** tstop() called on ed4 at Tue Nov  6 13:38:05 2018
Module time:
	user time   =       1.17 seconds =       0.02 minutes
	system time =       0.03 seconds =       0.00 minutes
	total time  =          1 seconds =       0.02 minutes
Total time:
	user time   =       1.17 seconds =       0.02 minutes
	system time =       0.03 seconds =       0.00 minutes
	total time  =          1 seconds =       0.02 minutes

Reading options from the V2RDM_DOCI block
Calling plugin v2rdm_doci.so.



*** tstart() called on ed4
*** at Tue Nov  6 13:38:05 2018

  ==> Boys Localizer <==

    Convergence =   1.000E-08
    Maxiter     =          50

    Iteration                   Metric       Residual
    @Boys    0   2.2866957578674351E-26              -
    @Boys    1   2.0943429089615876E+01   9.158817E+26
    @Boys    2   2.0943429089615876E+01   0.000000E+00

    Boys Localizer converged.

  ==> Boys Localizer <==

    Convergence =   1.000E-08
    Maxiter     =          50

    Iteration                   Metric       Residual
    @Boys    0   5.9918965436000054E-26              -
    @Boys    1   2.1152604586551014E+01   3.530202E+26
    @Boys    2   2.1152604586551014E+01   0.000000E+00

    Boys Localizer converged.

  ## MO coefficients (C) (Symmetry 0) ##
  Irrep: 1 Size: 4 x 4

                 1                   2                   3                   4

    1    -0.11710721831878     0.64632671957920     0.09670523477909     0.76642721138898
    2     0.06881327129286     0.64457459664315     0.17011399323819    -0.77976991566006
    3     0.64457459664316     0.06881327129287    -0.77976991566006     0.17011399323819
    4     0.64632671957919    -0.11710721831878     0.76642721138898     0.09670523477909





        *******************************************************
        *                                                     *
        *    v2RDM-DOCI                                       *
        *                                                     *
        *    A variational 2-RDM-driven approach to the       *
        *    doubles only configuration interaction method    *
        *                                                     *
        *******************************************************

  ==> Convergence parameters <==

        r_convergence:                      1.000e-06
        e_convergence:                      1.000e-05
        cg_convergence:                     1.000e-09
        maxiter:                              1000000
        cg_maxiter:                             10000

  ==> Active space details <==

        Number of frozen core orbitals:             0
        Number of restricted occupied orbitals:     0
        Number of active occupied orbitals:         2
        Number of active virtual orbitals:          2
        Number of restricted virtual orbitals:      0
        Number of frozen virtual orbitals:          0

        Irrep:              A 
 
        frozen_docc     [   0 ]
        restricted_docc [   0 ]
        active          [   4 ]
        restricted_uocc [   0 ]
        frozen_uocc     [   0 ]

  ==> Orbital optimization parameters <==

        1-step algorithm:                    true
        g_convergence:                  1.000e-04
        e_convergence:                  1.000e-06
        maximum iterations:                   500
        frequency:                            500
        active-active rotations:             true
        exact diagonal Hessian:              true
        number of DIIS vectors:                 0
        print iteration info:               false

  ==> Memory requirements <==

        D2:                          0.00 mb
        Q2:                          0.00 mb
        G2:                          0.00 mb

        Total number of variables:            330
        Total number of constraints:          325
        Total memory requirements:        0.05 mb

    ==> Transform three-electron integrals <==


        Time for integral transformation:     0.18 s

    Molecular point group: c1
    Full point group: D_inf_h

    Geometry (in Angstrom), charge = 0, multiplicity = 1:

       Center              X                  Y                   Z               Mass       
    ------------   -----------------  -----------------  -----------------  -----------------
         H            0.000000000000     0.000000000000    -2.700000000000     1.007825032070
         H            0.000000000000     0.000000000000    -0.900000000000     1.007825032070
         H            0.000000000000     0.000000000000     0.900000000000     1.007825032070
         H            0.000000000000     0.000000000000     2.700000000000     1.007825032070

  -AO BASIS SET INFORMATION:
    Name                   = STO-3G
    Blend                  = STO-3G
    Total number of shells = 4
    Number of primitives   = 12
    Number of AO           = 4
    Number of SO           = 4
    Maximum AM             = 0
    Spherical Harmonics    = TRUE

  -Contraction Scheme:
    Atom   Type   All Primitives // Shells:
   ------ ------ --------------------------
       1     H     3s // 1s 
       2     H     3s // 1s 
       3     H     3s // 1s 
       4     H     3s // 1s 

  ==> AO Basis Functions <==

    [ STO-3G ]
    spherical
    ****
    H   1
    S   3 1.00
                         3.42525091           0.15432897
                         0.62391373           0.53532814
                         0.16885540           0.44463454
    ****
    H   2
    S   3 1.00
                         3.42525091           0.15432897
                         0.62391373           0.53532814
                         0.16885540           0.44463454
    ****
    H   3
    S   3 1.00
                         3.42525091           0.15432897
                         0.62391373           0.53532814
                         0.16885540           0.44463454
    ****
    H   4
    S   3 1.00
                         3.42525091           0.15432897
                         0.62391373           0.53532814
                         0.16885540           0.44463454
    ****


    reference energy:          -1.667051432704
    frozen core energy:         0.000000000000
    initial 2-RDM energy:       1.392257809682

      oiter iiter        E(p)        E(d)      E gap)      mu     eps(p)     eps(d)
          0    14   -1.183130   18.010738   19.193868   1.000   0.012577   0.246516
          1    16   -1.139552   -1.441552    0.301999   1.000   0.000003   0.016905
          2    19   -1.201679   -1.008212    0.193467   1.000   0.000000   0.013721
          3    17   -1.263807   -1.008210    0.255597   1.000   0.000000   0.013721
          4     0   -1.325934   -1.008210    0.317724   1.000   0.000000   0.013721
          5     0   -1.388061   -1.008210    0.379851   1.000   0.000000   0.013721
          6     0   -1.450188   -1.008210    0.441978   1.000   0.000000   0.013721
          7     0   -1.512315   -1.008210    0.504105   1.000   0.000000   0.013721
          8     0   -1.583394   -1.008210    0.575184   1.000   0.001872   0.013014
          9    11   -1.677089   -1.070499    0.606590   1.000   0.009073   0.011007
         10    11   -1.703240   -1.312666    0.390574   1.000   0.008820   0.009285
         11    10   -1.693337   -1.442021    0.251316   1.000   0.004574   0.009907
         12    10   -1.680981   -1.451740    0.229242   1.000   0.000399   0.009987
         13    11   -1.685653   -1.390705    0.294948   1.000   0.002637   0.009523
         14    12   -1.710377   -1.319122    0.391255   1.000   0.003037   0.009280
         15    13   -1.747776   -1.273805    0.473971   1.000   0.002042   0.009307
         16    11   -1.788127   -1.263426    0.524702   1.000   0.000761   0.009332
         17    11   -1.824784   -1.276898    0.547886   1.000   0.000426   0.009298
         18    15   -1.855786   -1.297671    0.558114   1.000   0.000647   0.009270
         19    12   -1.882501   -1.313236    0.569265   1.000   0.000786   0.009052
         20    16   -1.907066   -1.341256    0.565810   1.000   0.004454   0.007793
         21    15   -1.935000   -1.531267    0.403733   1.000   0.006987   0.004887
         22    16   -1.952996   -1.781153    0.171843   1.000   0.007779   0.002307
         23    15   -1.951105   -2.001916    0.050811   1.000   0.006729   0.002677
         24    14   -1.931494   -2.142588    0.211094   1.000   0.004355   0.003968
         25    16   -1.903964   -2.184595    0.280631   1.000   0.001831   0.004395
         26    14   -1.878918   -2.141662    0.262744   1.000   0.002144   0.003867
         27    12   -1.862950   -2.044987    0.182037   1.000   0.003575   0.002764
         28    16   -1.857921   -1.930538    0.072617   1.000   0.004082   0.001730
         29    15   -1.862152   -1.829281    0.032871   1.000   0.003648   0.001579
         30    16   -1.872181   -1.761423    0.110758   1.000   0.002594   0.002011
         31    14   -1.884235   -1.734645    0.149590   1.000   0.001361   0.002248
         32    14   -1.895165   -1.745451    0.149714   1.000   0.000692   0.002129
         33    16   -1.902891   -1.782786    0.120105   1.000   0.001141   0.001777
         34    15   -1.906536   -1.831902    0.074633   1.000   0.001475   0.001425
         35    12   -1.906318   -1.879004    0.027315   1.000   0.001423   0.001288
         36    16   -1.903261   -1.913913    0.010652   1.000   0.001073   0.001343
         37    15   -1.898784   -1.931681    0.032896   1.000   0.000613   0.001402
         38    12   -1.894303   -1.932465    0.038163   1.000   0.000391   0.001367
         39    16   -1.890901   -1.920272    0.029371   1.000   0.000596   0.001253
         40    15   -1.889159   -1.901096    0.011936   1.000   0.000771   0.001127
         41    15   -1.889138   -1.881086    0.008052   1.000   0.000782   0.001052
         42    16   -1.890487   -1.865108    0.025379   1.000   0.000646   0.001036
         43    15   -1.892678   -1.856639    0.036039   1.000   0.000441   0.001035
         44    14   -1.895053   -1.856218    0.038834   1.000   0.000274   0.001010
         45    16   -1.896870   -1.860219    0.036651   1.000   0.000219   0.000975
         46    15   -1.897965   -1.867288    0.030677   1.000   0.000251   0.000934
         47    13   -1.898417   -1.875457    0.022960   1.000   0.000275   0.000897
         48    15   -1.898401   -1.883237    0.015164   1.000   0.000256   0.000871
         49    16   -1.898037   -1.888950    0.009088   1.000   0.000205   0.000853
         50    11   -1.897479   -1.891870    0.005609   1.000   0.000155   0.000834
         51    14   -1.896912   -1.892079    0.004832   1.000   0.000142   0.000812
         52    16   -1.896505   -1.890323    0.006182   1.000   0.000160   0.000788
         53    12   -1.896395   -1.888103    0.008292   1.000   0.000179   0.000764
         54    16   -1.896495   -1.885394    0.011101   1.000   0.000182   0.000743
         55    14   -1.896761   -1.883091    0.013670   1.000   0.000166   0.000724
         56    14   -1.897138   -1.881636    0.015503   1.000   0.000139   0.000707
         57    16   -1.897561   -1.881217    0.016344   1.000   0.000074   0.000691
         58    14   -1.897950   -1.882206    0.015744   1.000   0.000068   0.000673
         59    15   -1.898259   -1.883564    0.014695   1.000   0.000071   0.000656
         60    15   -1.898468   -1.885116    0.013352   1.000   0.000075   0.000640
         61    16   -1.898582   -1.886646    0.011936   1.000   0.000074   0.000624
         62    14   -1.898622   -1.887945    0.010676   1.000   0.000069   0.000608
         63    16   -1.898615   -1.888890    0.009725   1.000   0.000062   0.000593
         64    14   -1.898589   -1.889441    0.009147   1.000   0.000056   0.000579
         65    16   -1.898569   -1.889636    0.008933   1.000   0.000049   0.000565
         66    14   -1.898561   -1.889844    0.008717   1.000   0.000047   0.000550
         67    15   -1.898572   -1.889829    0.008743   1.000   0.000047   0.000537
         68    15   -1.898609   -1.889668    0.008941   1.000   0.000047   0.000523
         69    16   -1.898673   -1.889474    0.009199   1.000   0.000046   0.000510
         70    12   -1.898763   -1.889325    0.009438   1.000   0.000044   0.000498
         71    16   -1.898872   -1.889280    0.009592   1.000   0.000043   0.000486
         72    15   -1.898990   -1.889369    0.009621   1.000   0.000042   0.000474
         73    12   -1.899108   -1.889596    0.009512   1.000   0.000042   0.000462
         74    16   -1.899216   -1.889938    0.009278   1.000   0.000042   0.000451
         75    15   -1.899308   -1.890358    0.008949   1.000   0.000043   0.000440
         76    15   -1.899381   -1.890814    0.008567   1.000   0.000044   0.000429
         77    16   -1.899436   -1.891264    0.008172   1.000   0.000043   0.000418
         78    15   -1.899476   -1.891675    0.007801   1.000   0.000043   0.000408
         79    15   -1.899505   -1.892024    0.007481   1.000   0.000042   0.000398
         80    16   -1.899527   -1.892303    0.007225   1.000   0.000041   0.000388
         81    15   -1.899548   -1.892513    0.007035   1.000   0.000040   0.000379
         82    15   -1.899570   -1.892667    0.006903   1.000   0.000039   0.000369
         83    13   -1.899597   -1.892783    0.006814   1.000   0.000039   0.000360
         84    16   -1.899628   -1.892877    0.006751   1.000   0.000039   0.000352
         85    13   -1.899665   -1.892972    0.006693   1.000   0.000039   0.000343
         86    13   -1.899705   -1.893079    0.006626   1.000   0.000039   0.000334
         87    13   -1.899748   -1.893208    0.006539   1.000   0.000039   0.000326
         88    13   -1.899790   -1.893362    0.006428   1.000   0.000039   0.000318
         89    13   -1.899830   -1.893539    0.006291   1.000   0.000039   0.000310
         90    13   -1.899867   -1.893734    0.006134   1.000   0.000039   0.000303
         91    13   -1.899900   -1.893938    0.005962   1.000   0.000038   0.000295
         92    12   -1.899928   -1.894142    0.005786   1.000   0.000038   0.000288
         93    13   -1.899953   -1.894340    0.005612   1.000   0.000038   0.000281
         94    13   -1.899973   -1.894526    0.005447   1.000   0.000037   0.000274
         95    13   -1.899991   -1.894695    0.005296   1.000   0.000037   0.000267
         96    14   -1.900008   -1.894848    0.005160   1.000   0.000037   0.000261
         97    13   -1.900024   -1.894985    0.005039   1.000   0.000036   0.000254
         98    13   -1.900040   -1.895110    0.004930   1.000   0.000036   0.000248
         99    14   -1.900056   -1.895226    0.004831   1.000   0.000035   0.000242
        100    13   -1.900073   -1.895337    0.004737   1.000   0.000035   0.000236
        101    13   -1.900091   -1.895446    0.004645   1.000   0.000035   0.000230
        102    13   -1.900108   -1.895557    0.004551   1.000   0.000034   0.000225
        103    14   -1.900126   -1.895671    0.004455   1.000   0.000034   0.000219
        104    12   -1.900143   -1.895787    0.004356   1.000   0.000034   0.000214
        105    13   -1.900159   -1.895905    0.004253   1.000   0.000034   0.000208
        106    14   -1.900174   -1.896025    0.004148   1.000   0.000033   0.000203
        107    13   -1.900187   -1.896144    0.004043   1.000   0.000033   0.000198
        108    12   -1.900199   -1.896261    0.003939   1.000   0.000033   0.000193
        109    13   -1.900211   -1.896374    0.003837   1.000   0.000032   0.000189
        110    13   -1.900221   -1.896482    0.003739   1.000   0.000032   0.000184
        111    13   -1.900231   -1.896585    0.003645   1.000   0.000031   0.000180
        112    12   -1.900240   -1.896683    0.003556   1.000   0.000031   0.000175
        113    13   -1.900248   -1.896777    0.003471   1.000   0.000031   0.000171
        114    13   -1.900257   -1.896867    0.003390   1.000   0.000030   0.000167
        115    12   -1.900265   -1.896953    0.003312   1.000   0.000030   0.000162
        116    14   -1.900273   -1.897037    0.003236   1.000   0.000030   0.000158
        117    13   -1.900282   -1.897120    0.003162   1.000   0.000029   0.000155
        118    11   -1.900289   -1.897201    0.003088   1.000   0.000029   0.000151
        119    13   -1.900297   -1.897282    0.003015   1.000   0.000029   0.000147
        120    14   -1.900304   -1.897362    0.002943   1.000   0.000029   0.000143
        121    13   -1.900311   -1.897441    0.002871   1.000   0.000028   0.000140
        122    12   -1.900318   -1.897518    0.002800   1.000   0.000028   0.000136
        123    13   -1.900324   -1.897594    0.002730   1.000   0.000028   0.000133
        124    13   -1.900330   -1.897668    0.002661   1.000   0.000027   0.000130
        125    12   -1.900335   -1.897740    0.002595   1.000   0.000027   0.000127
        126    13   -1.900340   -1.897810    0.002530   1.000   0.000027   0.000123
        127    13   -1.900345   -1.897878    0.002467   1.000   0.000027   0.000120
        128    13   -1.900349   -1.897943    0.002406   1.000   0.000026   0.000117
        129    13   -1.900354   -1.898007    0.002347   1.000   0.000026   0.000115
        130    14   -1.900358   -1.898068    0.002289   1.000   0.000026   0.000112
        131    13   -1.900362   -1.898128    0.002233   1.000   0.000025   0.000109
        132    11   -1.900366   -1.898187    0.002179   1.000   0.000025   0.000106
        133    14   -1.900369   -1.898244    0.002125   1.000   0.000025   0.000104
        134    13   -1.900373   -1.898300    0.002073   1.000   0.000025   0.000101
        135    12   -1.900377   -1.898355    0.002022   1.000   0.000025   0.000099
        136    14   -1.900380   -1.898409    0.001971   1.000   0.000024   0.000096
        137    13   -1.900383   -1.898461    0.001922   1.000   0.000024   0.000094
        138    12   -1.900386   -1.898513    0.001874   1.000   0.000024   0.000092
        139    13   -1.900389   -1.898563    0.001826   1.000   0.000024   0.000089
        140    14   -1.900392   -1.898612    0.001780   1.000   0.000023   0.000087
        141    13   -1.900394   -1.898659    0.001735   1.000   0.000023   0.000085
        142    12   -1.900397   -1.898706    0.001691   1.000   0.000023   0.000083
        143    14   -1.900399   -1.898751    0.001648   1.000   0.000023   0.000081
        144    13   -1.900401   -1.898795    0.001606   1.000   0.000023   0.000079
        145    12   -1.900403   -1.898838    0.001566   1.000   0.000023   0.000077
        146    13   -1.900405   -1.898879    0.001526   1.000   0.000022   0.000075
        147    14   -1.900407   -1.898920    0.001487   1.000   0.000022   0.000073
        148    13   -1.900409   -1.898960    0.001450   1.000   0.000022   0.000071
        149    12   -1.900411   -1.898998    0.001413   1.000   0.000022   0.000070
        150    13   -1.900413   -1.899036    0.001377   1.000   0.000022   0.000068
        151    15   -1.900414   -1.899073    0.001341   1.000   0.000022   0.000066
        152    13   -1.900416   -1.899109    0.001307   1.000   0.000021   0.000064
        153    12   -1.900417   -1.899144    0.001273   1.000   0.000021   0.000063
        154    14   -1.900419   -1.899179    0.001240   1.000   0.000021   0.000061
        155    13   -1.900420   -1.899212    0.001208   1.000   0.000021   0.000060
        156    12   -1.900422   -1.899245    0.001177   1.000   0.000021   0.000058
        157    14   -1.900423   -1.899277    0.001146   1.000   0.000021   0.000057
        158    13   -1.900424   -1.899308    0.001117   1.000   0.000021   0.000056
        159    12   -1.900425   -1.899338    0.001087   1.000   0.000021   0.000054
        160    14   -1.900426   -1.899367    0.001059   1.000   0.000020   0.000053
        161    13   -1.900427   -1.899396    0.001031   1.000   0.000020   0.000052
        162    12   -1.900428   -1.899424    0.001004   1.000   0.000020   0.000050
        163    15   -1.900429   -1.899451    0.000978   1.000   0.000020   0.000049
        164    13   -1.900430   -1.899478    0.000952   1.000   0.000020   0.000048
        165    12   -1.900431   -1.899504    0.000927   1.000   0.000020   0.000047
        166    13   -1.900432   -1.899529    0.000903   1.000   0.000020   0.000045
        167    14   -1.900433   -1.899554    0.000879   1.000   0.000020   0.000044
        168    13   -1.900434   -1.899578    0.000855   1.000   0.000020   0.000043
        169    11   -1.900434   -1.899602    0.000832   1.000   0.000020   0.000042
        170    13   -1.900435   -1.899625    0.000810   1.000   0.000020   0.000041
        171    15   -1.900436   -1.899647    0.000788   1.000   0.000019   0.000040
        172    13   -1.900436   -1.899669    0.000767   1.000   0.000019   0.000039
        173    12   -1.900437   -1.899690    0.000747   1.000   0.000019   0.000038
        174    13   -1.900438   -1.899711    0.000726   1.000   0.000019   0.000037
        175    13   -1.900438   -1.899732    0.000707   1.000   0.000019   0.000036
        176    13   -1.900439   -1.899751    0.000687   1.000   0.000019   0.000035
        177    13   -1.900439   -1.899770    0.000669   1.000   0.000019   0.000035
        178    13   -1.900440   -1.899789    0.000650   1.000   0.000019   0.000034
        179    13   -1.900440   -1.899808    0.000633   1.000   0.000019   0.000033
        180    13   -1.900441   -1.899826    0.000615   1.000   0.000019   0.000032
        181    13   -1.900441   -1.899843    0.000598   1.000   0.000019   0.000031
        182    13   -1.900442   -1.899860    0.000582   1.000   0.000019   0.000030
        183    13   -1.900442   -1.899877    0.000565   1.000   0.000019   0.000030
        184    13   -1.900442   -1.899893    0.000550   1.000   0.000019   0.000029
        185    12   -1.900443   -1.899909    0.000534   1.000   0.000019   0.000028
        186    12   -1.900443   -1.899924    0.000519   1.000   0.000019   0.000028
        187    12   -1.900444   -1.899939    0.000504   1.000   0.000019   0.000027
        188    12   -1.900444   -1.899954    0.000490   1.000   0.000018   0.000026
        189    11   -1.900444   -1.899968    0.000476   1.000   0.000018   0.000026
        190    12   -1.900445   -1.899982    0.000463   1.000   0.000018   0.000025
        191    12   -1.900445   -1.899996    0.000449   1.000   0.000018   0.000024
        192    12   -1.900445   -1.900009    0.000436   1.000   0.000018   0.000024
        193    12   -1.900445   -1.900022    0.000424   1.000   0.000018   0.000023
        194    12   -1.900446   -1.900034    0.000411   1.000   0.000018   0.000023
        195    12   -1.900446   -1.900047    0.000399   1.000   0.000018   0.000022
        196    12   -1.900446   -1.900059    0.000388   1.000   0.000018   0.000021
        197    12   -1.900446   -1.900070    0.000376   1.000   0.000018   0.000021
        198    12   -1.900447   -1.900082    0.000365   1.000   0.000018   0.000020
        199    12   -1.900447   -1.900093    0.000354   1.000   0.000018   0.000020
        200    12   -1.900447   -1.900104    0.000344   1.000   0.000018   0.000019
        201    12   -1.900447   -1.900114    0.000333   1.000   0.000018   0.000019
        202    11   -1.900448   -1.900125    0.000323   1.000   0.000018   0.000018
        203    12   -1.900448   -1.900135    0.000313   1.000   0.000018   0.000018
        204    12   -1.900448   -1.900144    0.000304   1.000   0.000018   0.000018
        205    12   -1.900448   -1.900154    0.000294   1.000   0.000018   0.000017
        206    11   -1.900448   -1.900163    0.000285   1.000   0.000018   0.000017
        207    12   -1.900449   -1.900172    0.000276   1.000   0.000018   0.000016
        208    12   -1.900449   -1.900181    0.000267   1.000   0.000018   0.000016
        209    11   -1.900449   -1.900190    0.000259   1.000   0.000018   0.000015
        210    12   -1.900449   -1.900198    0.000251   1.000   0.000018   0.000015
        211    11   -1.900449   -1.900207    0.000243   1.000   0.000018   0.000015
        212    12   -1.900449   -1.900215    0.000235   1.000   0.000018   0.000014
        213    12   -1.900449   -1.900222    0.000227   1.000   0.000018   0.000014
        214    12   -1.900450   -1.900230    0.000219   1.000   0.000018   0.000014
        215    11   -1.900450   -1.900238    0.000212   1.000   0.000018   0.000013
        216    12   -1.900450   -1.900245    0.000205   1.000   0.000018   0.000013
        217    11   -1.900450   -1.900252    0.000198   1.000   0.000018   0.000013
        218    12   -1.900450   -1.900259    0.000191   1.000   0.000018   0.000012
        219    12   -1.900450   -1.900266    0.000185   1.000   0.000018   0.000012
        220    12   -1.900450   -1.900272    0.000178   1.000   0.000018   0.000012
        221    12   -1.900450   -1.900279    0.000172   1.000   0.000018   0.000011
        222    11   -1.900451   -1.900285    0.000166   1.000   0.000018   0.000011
        223    12   -1.900451   -1.900291    0.000160   1.000   0.000018   0.000011
        224    12   -1.900451   -1.900297    0.000154   1.000   0.000018   0.000011
        225    13   -1.900451   -1.900303    0.000148   1.000   0.000017   0.000010
        226    13   -1.900451   -1.900308    0.000143   1.000   0.000017   0.000010
        227    11   -1.900451   -1.900314    0.000137   1.000   0.000017   0.000010
        228    13   -1.900451   -1.900319    0.000132   1.000   0.000017   0.000010
        229    13   -1.900451   -1.900324    0.000127   1.000   0.000017   0.000009
        230    11   -1.900451   -1.900330    0.000122   1.000   0.000017   0.000009
        231    13   -1.900451   -1.900334    0.000117   1.000   0.000017   0.000009
        232    13   -1.900451   -1.900339    0.000112   1.000   0.000017   0.000009
        233    13   -1.900451   -1.900344    0.000107   1.000   0.000017   0.000008
        234    13   -1.900452   -1.900349    0.000103   1.000   0.000017   0.000008
        235    12   -1.900452   -1.900353    0.000099   1.000   0.000017   0.000008
        236    13   -1.900452   -1.900358    0.000094   1.000   0.000017   0.000008
        237    13   -1.900452   -1.900362    0.000090   1.000   0.000017   0.000008
        238    13   -1.900452   -1.900366    0.000086   1.000   0.000017   0.000007
        239    13   -1.900452   -1.900370    0.000082   1.000   0.000017   0.000007
        240    14   -1.900452   -1.900374    0.000078   1.000   0.000017   0.000007
        241    13   -1.900452   -1.900378    0.000074   1.000   0.000017   0.000007
        242    12   -1.900452   -1.900382    0.000070   1.000   0.000017   0.000007
        243    13   -1.900452   -1.900386    0.000067   1.000   0.000017   0.000007
        244    13   -1.900452   -1.900389    0.000063   1.000   0.000017   0.000006
        245    12   -1.900452   -1.900393    0.000060   1.000   0.000017   0.000006
        246    13   -1.900452   -1.900396    0.000056   1.000   0.000017   0.000006
        247    13   -1.900452   -1.900399    0.000053   1.000   0.000017   0.000006
        248    13   -1.900452   -1.900403    0.000050   1.000   0.000017   0.000006
        249    13   -1.900453   -1.900406    0.000047   1.000   0.000017   0.000006
        250    13   -1.900453   -1.900409    0.000044   1.000   0.000017   0.000006
        251    15   -1.900453   -1.900412    0.000041   1.000   0.000017   0.000005
        252    11   -1.900453   -1.900415    0.000038   1.000   0.000017   0.000005
        253    13   -1.900453   -1.900418    0.000035   1.000   0.000017   0.000005
        254    14   -1.900453   -1.900421    0.000032   1.000   0.000017   0.000005
        255    13   -1.900453   -1.900423    0.000030   1.000   0.000017   0.000005
        256    13   -1.900453   -1.900426    0.000027   1.000   0.000017   0.000005
        257    13   -1.900453   -1.900428    0.000024   1.000   0.000017   0.000005
        258    13   -1.900453   -1.900431    0.000022   1.000   0.000017   0.000005
        259    14   -1.900453   -1.900433    0.000020   1.000   0.000017   0.000004
        260    13   -1.900453   -1.900436    0.000017   1.000   0.000017   0.000004
        261    12   -1.900453   -1.900438    0.000015   1.000   0.000017   0.000004
        262    13   -1.900453   -1.900440    0.000013   1.000   0.000017   0.000004
        263    15   -1.900453   -1.900443    0.000010   1.000   0.000017   0.000004
        264    13   -1.900453   -1.900445    0.000008   1.000   0.000017   0.000004
        265    12   -1.900453   -1.900447    0.000006   1.000   0.000017   0.000004
        266    15   -1.900453   -1.900449    0.000004   1.000   0.000017   0.000004
        267    13   -1.900453   -1.900451    0.000002   1.000   0.000017   0.000004
        268    13   -1.900453   -1.900453    0.000000   1.000   0.000017   0.000004
        269    13   -1.900453   -1.900455    0.000002   1.000   0.000017   0.000003
        270    13   -1.900453   -1.900457    0.000003   1.000   0.000017   0.000003
        271    13   -1.900453   -1.900459    0.000005   1.000   0.000017   0.000003
        272    13   -1.900454   -1.900460    0.000007   1.000   0.000017   0.000003
        273    15   -1.900454   -1.900462    0.000009   1.000   0.000017   0.000003
        274    13   -1.900454   -1.900464    0.000010   1.000   0.000017   0.000003
        275    13   -1.900454   -1.900466    0.000012   1.000   0.000017   0.000003
        276    13   -1.900454   -1.900467    0.000013   1.000   0.000017   0.000003
        277    13   -1.900454   -1.900469    0.000015   1.000   0.000017   0.000003
        278    13   -1.900454   -1.900470    0.000016   1.000   0.000017   0.000003
        279    13   -1.900454   -1.900472    0.000018   1.000   0.000017   0.000003
        280    13   -1.900454   -1.900473    0.000019   1.000   0.000017   0.000003
        281    13   -1.900454   -1.900475    0.000021   1.000   0.000017   0.000003
        282    12   -1.900454   -1.900476    0.000022   1.000   0.000017   0.000003
        283    15   -1.900454   -1.900477    0.000023   1.000   0.000017   0.000002
        284    13   -1.900454   -1.900479    0.000025   1.000   0.000017   0.000002
        285    13   -1.900454   -1.900480    0.000026   1.000   0.000017   0.000002
        286    15   -1.900454   -1.900481    0.000027   1.000   0.000017   0.000002
        287    13   -1.900454   -1.900482    0.000028   1.000   0.000017   0.000002
        288    15   -1.900454   -1.900484    0.000030   1.000   0.000017   0.000002
        289    13   -1.900454   -1.900485    0.000031   1.000   0.000017   0.000002
        290    15   -1.900454   -1.900486    0.000032   1.000   0.000017   0.000002
        291    13   -1.900454   -1.900487    0.000033   1.000   0.000017   0.000002
        292    15   -1.900454   -1.900488    0.000034   1.000   0.000017   0.000002
        293    13   -1.900454   -1.900489    0.000035   1.000   0.000017   0.000002
        294    15   -1.900454   -1.900490    0.000036   1.000   0.000017   0.000002
        295    15   -1.900454   -1.900491    0.000037   1.000   0.000017   0.000002
        296    15   -1.900454   -1.900492    0.000038   1.000   0.000017   0.000002
        297    15   -1.900454   -1.900493    0.000039   1.000   0.000017   0.000002
        298    15   -1.900454   -1.900494    0.000040   1.000   0.000017   0.000002
        299    15   -1.900454   -1.900495    0.000040   1.000   0.000017   0.000002
        300    15   -1.900454   -1.900496    0.000041   1.000   0.000017   0.000002
        301    15   -1.900454   -1.900497    0.000042   1.000   0.000017   0.000002
        302    15   -1.900454   -1.900497    0.000043   1.000   0.000017   0.000002
        303    14   -1.900454   -1.900498    0.000044   1.000   0.000017   0.000002
        304    15   -1.900455   -1.900499    0.000044   1.000   0.000017   0.000001
        305    15   -1.900455   -1.900500    0.000045   1.000   0.000017   0.000001
        306    14   -1.900455   -1.900500    0.000046   1.000   0.000017   0.000001
        307    15   -1.900455   -1.900501    0.000047   1.000   0.000017   0.000001
        308    15   -1.900455   -1.900502    0.000047   1.000   0.000017   0.000001
        309    15   -1.900455   -1.900503    0.000048   1.000   0.000017   0.000001
        310    15   -1.900455   -1.900503    0.000049   1.000   0.000017   0.000001
        311    15   -1.900455   -1.900504    0.000049   1.000   0.000017   0.000001
        312    14   -1.900455   -1.900505    0.000050   1.000   0.000017   0.000001
        313    15   -1.900455   -1.900505    0.000051   1.000   0.000017   0.000001
        314    15   -1.900455   -1.900506    0.000051   1.000   0.000017   0.000001
        315    15   -1.900455   -1.900506    0.000052   1.000   0.000017   0.000001
        316    15   -1.900455   -1.900507    0.000052   1.000   0.000017   0.000001
        317    15   -1.900455   -1.900508    0.000053   1.000   0.000017   0.000001
        318    15   -1.900455   -1.900508    0.000053   1.000   0.000017   0.000001
        319    15   -1.900455   -1.900509    0.000054   1.000   0.000017   0.000001
        320    15   -1.900455   -1.900509    0.000054   1.000   0.000017   0.000001
        321    16   -1.900455   -1.900510    0.000055   1.000   0.000017   0.000001
        322    15   -1.900455   -1.900510    0.000055   1.000   0.000017   0.000001
        323    11   -1.900455   -1.900511    0.000056   1.000   0.000017   0.000001
        324    16   -1.900455   -1.900511    0.000056   1.000   0.000017   0.000001
        325    12   -1.900455   -1.900512    0.000057   1.000   0.000017   0.000001
        326    15   -1.900455   -1.900512    0.000057   1.000   0.000017   0.000001
        327    15   -1.900455   -1.900513    0.000057   1.000   0.000017   0.000001
        328    16   -1.900455   -1.900513    0.000058   1.000   0.000017   0.000001
        329    15   -1.900455   -1.900513    0.000058   1.000   0.000017   0.000001
        330    11   -1.900455   -1.900514    0.000059   1.000   0.000017   0.000001
        331    16   -1.900455   -1.900514    0.000059   1.000   0.000017   0.000001
        332    12   -1.900455   -1.900515    0.000059   1.000   0.000017   0.000001
        333    15   -1.900455   -1.900515    0.000060   1.000   0.000017   0.000001
        334    16   -1.900455   -1.900515    0.000060   1.000   0.000017   0.000001
        335    14   -1.900455   -1.900516    0.000060   1.000   0.000017   0.000001
        336    16   -1.900455   -1.900516    0.000061   1.000   0.000017   0.000001
        337    15   -1.900455   -1.900516    0.000061   1.000   0.000017   0.000001
        338    16   -1.900455   -1.900517    0.000061   1.000   0.000017   0.000001
        339    15   -1.900455   -1.900517    0.000062   1.000   0.000017   0.000001
        340    16   -1.900455   -1.900517    0.000062   1.000   0.000017   0.000001
        341    15   -1.900455   -1.900518    0.000062   1.000   0.000017   0.000001
        342    16   -1.900455   -1.900518    0.000063   1.000   0.000017   0.000001
        343    15   -1.900455   -1.900518    0.000063   1.000   0.000017   0.000001
        344    14   -1.900455   -1.900518    0.000063   1.000   0.000017   0.000001
        345    16   -1.900455   -1.900519    0.000063   1.000   0.000017   0.000001
        346    15   -1.900455   -1.900519    0.000064   1.000   0.000017   0.000001
        347    15   -1.900455   -1.900519    0.000064   1.000   0.000017   0.000001
        348    15   -1.900456   -1.900520    0.000064   1.000   0.000017   0.000001
        349    16   -1.900456   -1.900520    0.000064   1.000   0.000017   0.000001
        350    15   -1.900456   -1.900520    0.000064   1.000   0.000017   0.000001
        351    15   -1.900456   -1.900520    0.000065   1.000   0.000017   0.000001
        352    16   -1.900456   -1.900520    0.000065   1.000   0.000017   0.000001
        353    14   -1.900456   -1.900521    0.000065   1.000   0.000017   0.000001
        354    16   -1.900456   -1.900521    0.000065   1.000   0.000017   0.000001
        355    15   -1.900456   -1.900521    0.000065   1.000   0.000017   0.000001
        356    15   -1.900456   -1.900521    0.000066   1.000   0.000017   0.000001
        357    16   -1.900456   -1.900522    0.000066   1.000   0.000017   0.000001
        358    16   -1.900456   -1.900522    0.000066   1.000   0.000017   0.000001
        359    15   -1.900456   -1.900522    0.000066   1.000   0.000017   0.000001
        360    14   -1.900456   -1.900522    0.000066   1.000   0.000017   0.000001
        361    16   -1.900456   -1.900522    0.000067   1.000   0.000017   0.000001
        362    14   -1.900456   -1.900522    0.000067   1.000   0.000017   0.000000
        363    16   -1.900456   -1.900523    0.000067   1.000   0.000017   0.000000
        364    15   -1.900456   -1.900523    0.000067   1.000   0.000017   0.000000
        365    15   -1.900456   -1.900523    0.000067   1.000   0.000017   0.000000
        366    15   -1.900456   -1.900523    0.000067   1.000   0.000017   0.000000
        367    16   -1.900456   -1.900523    0.000067   1.000   0.000017   0.000000
        368    14   -1.900456   -1.900523    0.000068   1.000   0.000017   0.000000
        369    16   -1.900456   -1.900524    0.000068   1.000   0.000017   0.000000
        370    15   -1.900456   -1.900524    0.000068   1.000   0.000017   0.000000
        371    16   -1.900456   -1.900524    0.000068   1.000   0.000017   0.000000
        372    15   -1.900456   -1.900524    0.000068   1.000   0.000016   0.000000
        373    16   -1.900456   -1.900524    0.000068   1.000   0.000016   0.000000
        374    14   -1.900456   -1.900524    0.000068   1.000   0.000016   0.000000
        375    16   -1.900456   -1.900524    0.000068   1.000   0.000016   0.000000
        376    15   -1.900456   -1.900524    0.000068   1.000   0.000016   0.000000
        377    15   -1.900456   -1.900525    0.000068   1.000   0.000016   0.000000
        378    16   -1.900456   -1.900525    0.000069   1.000   0.000016   0.000000
        379    15   -1.900456   -1.900525    0.000069   1.000   0.000016   0.000000
        380    16   -1.900456   -1.900525    0.000069   1.000   0.000016   0.000000
        381    15   -1.900456   -1.900525    0.000069   1.000   0.000016   0.000000
        382    16   -1.900456   -1.900525    0.000069   1.000   0.000016   0.000000
        383    15   -1.900456   -1.900525    0.000069   1.000   0.000016   0.000000
        384    16   -1.900456   -1.900525    0.000069   1.000   0.000016   0.000000
        385    15   -1.900456   -1.900525    0.000069   1.000   0.000016   0.000000
        386    15   -1.900456   -1.900526    0.000069   1.000   0.000016   0.000000
        387    16   -1.900456   -1.900526    0.000069   1.000   0.000016   0.000000
        388    15   -1.900456   -1.900526    0.000069   1.000   0.000016   0.000000
        389    16   -1.900456   -1.900526    0.000069   1.000   0.000016   0.000000
        390    15   -1.900456   -1.900526    0.000069   1.000   0.000016   0.000000
        391    16   -1.900456   -1.900526    0.000070   1.000   0.000016   0.000000
        392    15   -1.900456   -1.900526    0.000070   1.000   0.000016   0.000000
        393    16   -1.900456   -1.900526    0.000070   1.000   0.000016   0.000000
        394    15   -1.900456   -1.900526    0.000070   1.000   0.000016   0.000000
        395    16   -1.900456   -1.900526    0.000070   1.000   0.000016   0.000000
        396    15   -1.900456   -1.900526    0.000070   1.000   0.000016   0.000000
        397    16   -1.900456   -1.900526    0.000070   1.000   0.000016   0.000000
        398    14   -1.900457   -1.900526    0.000070   1.000   0.000016   0.000000
        399    16   -1.900457   -1.900526    0.000070   1.000   0.000016   0.000000
        400    15   -1.900457   -1.900527    0.000070   1.000   0.000016   0.000000
        401    15   -1.900457   -1.900527    0.000070   1.000   0.000016   0.000000
        402    15   -1.900457   -1.900527    0.000070   1.000   0.000016   0.000000
        403    15   -1.900457   -1.900527    0.000070   1.000   0.000016   0.000000
        404    16   -1.900457   -1.900527    0.000070   1.000   0.000016   0.000000
        405    15   -1.900457   -1.900527    0.000070   1.000   0.000016   0.000000
        406    16   -1.900457   -1.900527    0.000070   1.000   0.000016   0.000000
        407    15   -1.900457   -1.900527    0.000070   1.000   0.000016   0.000000
        408    16   -1.900457   -1.900527    0.000070   1.000   0.000016   0.000000
        409    15   -1.900457   -1.900527    0.000070   1.000   0.000016   0.000000
        410    16   -1.900457   -1.900527    0.000070   1.000   0.000016   0.000000
        411    15   -1.900457   -1.900527    0.000070   1.000   0.000016   0.000000
        412    16   -1.900457   -1.900527    0.000070   1.000   0.000016   0.000000
        413    15   -1.900457   -1.900527    0.000070   1.000   0.000016   0.000000
        414    16   -1.900457   -1.900527    0.000070   1.000   0.000016   0.000000
        415    15   -1.900457   -1.900527    0.000070   1.000   0.000016   0.000000
        416    16   -1.900457   -1.900527    0.000070   1.000   0.000016   0.000000
        417    15   -1.900457   -1.900527    0.000070   1.000   0.000016   0.000000
        418    16   -1.900457   -1.900527    0.000070   1.000   0.000016   0.000000
        419    15   -1.900457   -1.900527    0.000070   1.000   0.000016   0.000000
        420    16   -1.900457   -1.900527    0.000070   1.000   0.000016   0.000000
        421    15   -1.900457   -1.900527    0.000071   1.000   0.000016   0.000000
        422    16   -1.900457   -1.900527    0.000071   1.000   0.000016   0.000000
        423    15   -1.900457   -1.900527    0.000071   1.000   0.000016   0.000000
        424    16   -1.900457   -1.900528    0.000071   1.000   0.000016   0.000000
        425    15   -1.900457   -1.900528    0.000071   1.000   0.000016   0.000000
        426    16   -1.900457   -1.900528    0.000071   1.000   0.000016   0.000000
        427    15   -1.900457   -1.900528    0.000071   1.000   0.000016   0.000000
        428    16   -1.900457   -1.900528    0.000071   1.000   0.000016   0.000000
        429    15   -1.900457   -1.900528    0.000071   1.000   0.000016   0.000000
        430    16   -1.900457   -1.900528    0.000071   1.000   0.000016   0.000000
        431    15   -1.900457   -1.900528    0.000071   1.000   0.000016   0.000000
        432    16   -1.900457   -1.900528    0.000071   1.000   0.000016   0.000000
        433    15   -1.900457   -1.900528    0.000071   1.000   0.000016   0.000000
        434    15   -1.900457   -1.900528    0.000071   1.000   0.000016   0.000000
        435    16   -1.900457   -1.900528    0.000071   1.000   0.000016   0.000000
        436    15   -1.900457   -1.900528    0.000071   1.000   0.000016   0.000000
        437    16   -1.900457   -1.900528    0.000071   1.000   0.000016   0.000000
        438    15   -1.900457   -1.900528    0.000071   1.000   0.000016   0.000000
        439    16   -1.900457   -1.900528    0.000071   1.000   0.000016   0.000000
        440    15   -1.900457   -1.900528    0.000071   1.000   0.000016   0.000000
        441    16   -1.900457   -1.900528    0.000071   1.000   0.000016   0.000000
        442    15   -1.900457   -1.900528    0.000071   1.000   0.000016   0.000000
        443    15   -1.900457   -1.900528    0.000071   1.000   0.000016   0.000000
        444    15   -1.900457   -1.900528    0.000071   1.000   0.000016   0.000000
        445    16   -1.900457   -1.900528    0.000071   1.000   0.000016   0.000000
        446    14   -1.900457   -1.900528    0.000071   1.000   0.000016   0.000000
        447    16   -1.900457   -1.900528    0.000071   1.000   0.000016   0.000000
        448    15   -1.900457   -1.900528    0.000071   1.000   0.000016   0.000000
        449    16   -1.900457   -1.900528    0.000071   1.000   0.000016   0.000000
        450    15   -1.900457   -1.900528    0.000070   1.000   0.000016   0.000000
        451    16   -1.900457   -1.900528    0.000070   1.000   0.000016   0.000000
        452    15   -1.900457   -1.900528    0.000070   1.000   0.000016   0.000000
        453    16   -1.900458   -1.900528    0.000070   1.000   0.000016   0.000000
        454    15   -1.900458   -1.900528    0.000070   1.000   0.000016   0.000000
        455    16   -1.900458   -1.900528    0.000070   1.000   0.000016   0.000000
        456    15   -1.900458   -1.900528    0.000070   1.000   0.000016   0.000000
        457    16   -1.900458   -1.900528    0.000070   1.000   0.000016   0.000000
        458    15   -1.900458   -1.900528    0.000070   1.000   0.000016   0.000000
        459    16   -1.900458   -1.900528    0.000070   1.000   0.000016   0.000000
        460    15   -1.900458   -1.900528    0.000070   1.000   0.000016   0.000000
        461    16   -1.900458   -1.900528    0.000070   1.000   0.000016   0.000000
        462    15   -1.900458   -1.900528    0.000070   1.000   0.000016   0.000000
        463    16   -1.900458   -1.900528    0.000070   1.000   0.000016   0.000000
        464    15   -1.900458   -1.900528    0.000070   1.000   0.000016   0.000000
        465    16   -1.900458   -1.900528    0.000070   1.000   0.000016   0.000000
        466    15   -1.900458   -1.900528    0.000070   1.000   0.000016   0.000000
        467    16   -1.900458   -1.900528    0.000070   1.000   0.000016   0.000000
        468    15   -1.900458   -1.900528    0.000070   1.000   0.000016   0.000000
        469    16   -1.900458   -1.900528    0.000070   1.000   0.000016   0.000000
        470    15   -1.900458   -1.900528    0.000070   1.000   0.000016   0.000000
        471    16   -1.900458   -1.900528    0.000070   1.000   0.000016   0.000000
        472    15   -1.900458   -1.900528    0.000070   1.000   0.000016   0.000000
        473    16   -1.900458   -1.900528    0.000070   1.000   0.000016   0.000000
        474    15   -1.900458   -1.900528    0.000070   1.000   0.000016   0.000000
        475    16   -1.900458   -1.900528    0.000070   1.000   0.000016   0.000000
        476    15   -1.900458   -1.900528    0.000070   1.000   0.000016   0.000000
        477    16   -1.900458   -1.900528    0.000070   1.000   0.000016   0.000000
        478    15   -1.900458   -1.900528    0.000070   1.000   0.000016   0.000000
        479    16   -1.900458   -1.900528    0.000070   1.000   0.000016   0.000000
        480    15   -1.900458   -1.900528    0.000070   1.000   0.000016   0.000000
        481    16   -1.900458   -1.900528    0.000070   1.000   0.000016   0.000000
        482    15   -1.900458   -1.900528    0.000070   1.000   0.000016   0.000000
        483    16   -1.900458   -1.900528    0.000070   1.000   0.000016   0.000000
        484    15   -1.900458   -1.900528    0.000070   1.000   0.000016   0.000000
        485    16   -1.900458   -1.900528    0.000070   1.000   0.000016   0.000000
        486    15   -1.900458   -1.900528    0.000070   1.000   0.000016   0.000000
        487    16   -1.900458   -1.900528    0.000070   1.000   0.000016   0.000000
        488    15   -1.900458   -1.900528    0.000070   1.000   0.000016   0.000000
        489    16   -1.900458   -1.900528    0.000070   1.000   0.000016   0.000000
        490    15   -1.900458   -1.900528    0.000070   1.000   0.000016   0.000000
        491    16   -1.900458   -1.900528    0.000070   1.000   0.000016   0.000000
        492    15   -1.900458   -1.900528    0.000070   1.000   0.000016   0.000000
        493    16   -1.900458   -1.900528    0.000070   1.000   0.000016   0.000000
        494    15   -1.900458   -1.900528    0.000070   1.000   0.000016   0.000000
        495    16   -1.900458   -1.900528    0.000070   1.000   0.000016   0.000000
        496    15   -1.900458   -1.900528    0.000070   1.000   0.000016   0.000000
        497    16   -1.900458   -1.900528    0.000070   1.000   0.000016   0.000000
        498    15   -1.900458   -1.900528    0.000070   1.000   0.000016   0.000000
        499    16   -1.900458   -1.900528    0.000070   1.000   0.000016   0.000000

        ==> Orbital Optimization <==

            Orbital Optimization converged in   3 iterations 
            Total energy change: -1.199949e-02
            Final gradient norm: 9.793310e-05

        500    15   -1.912458   -1.900528    0.011930   1.000   0.000016   0.000000
        501    19   -1.919661   -1.880926    0.038734   1.000   0.000787   0.000806
        502    12   -1.920656   -1.899645    0.021011   1.000   0.000837   0.000437
        503    15   -1.918392   -1.915151    0.003241   1.000   0.000609   0.000430
        504    14   -1.915699   -1.925885    0.010186   1.000   0.000431   0.000384
        505    15   -1.913843   -1.932030    0.018187   1.000   0.000310   0.000341
        506    15   -1.912780   -1.933635    0.020854   1.000   0.000199   0.000335
        507    16   -1.912121   -1.931538    0.019418   1.000   0.000165   0.000310
        508    11   -1.911642   -1.926920    0.015278   1.000   0.000205   0.000263
        509    13   -1.911359   -1.921186    0.009827   1.000   0.000231   0.000222
        510    13   -1.911360   -1.915724    0.004364   1.000   0.000219   0.000205
        511    13   -1.911664   -1.911620    0.000044   1.000   0.000179   0.000205
        512    13   -1.912179   -1.909458    0.002721   1.000   0.000131   0.000207
        513    12   -1.912747   -1.909269    0.003478   1.000   0.000101   0.000201
        514    16   -1.913218   -1.910637    0.002582   1.000   0.000103   0.000188
        515    15   -1.913500   -1.912892    0.000608   1.000   0.000113   0.000173
        516    14   -1.913571   -1.915322    0.001751   1.000   0.000113   0.000163
        517    15   -1.913467   -1.917341    0.003875   1.000   0.000101   0.000158
        518    16   -1.913256   -1.918592    0.005336   1.000   0.000083   0.000156
        519    11   -1.913012   -1.918967    0.005956   1.000   0.000069   0.000153
        520    12   -1.912797   -1.918572    0.005775   1.000   0.000065   0.000148
        521    13   -1.912652   -1.917659    0.005006   1.000   0.000068   0.000142
        522    14   -1.912593   -1.916528    0.003935   1.000   0.000068   0.000136
        523    13   -1.912613   -1.915461    0.002847   1.000   0.000065   0.000132
        524    13   -1.912691   -1.914658    0.001967   1.000   0.000057   0.000129
        525    14   -1.912798   -1.914219    0.001421   1.000   0.000050   0.000125
        526    10   -1.912905   -1.914141    0.001235   1.000   0.000045   0.000122
        527    13   -1.912991   -1.914346    0.001356   1.000   0.000042   0.000118
        528    16   -1.913041   -1.914710    0.001669   1.000   0.000040   0.000114
        529    15   -1.913056   -1.915107    0.002051   1.000   0.000038   0.000111
        530    11   -1.913040   -1.915431    0.002391   1.000   0.000036   0.000108
        531    16   -1.913005   -1.915616    0.002612   1.000   0.000033   0.000105
        532    11   -1.912963   -1.915644    0.002681   1.000   0.000030   0.000103
        533    13   -1.912927   -1.915532    0.002606   1.000   0.000029   0.000100
        534    12   -1.912902   -1.915329    0.002427   1.000   0.000028   0.000097
        535    13   -1.912893   -1.915085    0.002191   1.000   0.000027   0.000095
        536    13   -1.912899   -1.914855    0.001956   1.000   0.000025   0.000092
        537    10   -1.912915   -1.914674    0.001759   1.000   0.000024   0.000090
        538    11   -1.912936   -1.914559    0.001623   1.000   0.000022   0.000088
        539    14   -1.912957   -1.914513    0.001555   1.000   0.000020   0.000085
        540    13   -1.912974   -1.914517    0.001543   1.000   0.000019   0.000083
        541    13   -1.912985   -1.914552    0.001567   1.000   0.000018   0.000081
        542    13   -1.912989   -1.914593    0.001604   1.000   0.000017   0.000079
        543    14   -1.912987   -1.914622    0.001635   1.000   0.000016   0.000077
        544    14   -1.912982   -1.914626    0.001644   1.000   0.000015   0.000075
        545    14   -1.912976   -1.914602    0.001626   1.000   0.000014   0.000073
        546    13   -1.912970   -1.914553    0.001583   1.000   0.000013   0.000071
        547    14   -1.912967   -1.914488    0.001521   1.000   0.000013   0.000069
        548    13   -1.912966   -1.914417    0.001451   1.000   0.000012   0.000067
        549    13   -1.912968   -1.914350    0.001381   1.000   0.000011   0.000066
        550    13   -1.912972   -1.914291    0.001319   1.000   0.000011   0.000064
        551    14   -1.912977   -1.914246    0.001269   1.000   0.000010   0.000062
        552    13   -1.912982   -1.914214    0.001233   1.000   0.000010   0.000061
        553    13   -1.912986   -1.914192    0.001206   1.000   0.000009   0.000059
        554    14   -1.912988   -1.914175    0.001187   1.000   0.000008   0.000058
        555    14   -1.912990   -1.914161    0.001171   1.000   0.000008   0.000056
        556    14   -1.912990   -1.914144    0.001154   1.000   0.000008   0.000055
        557    14   -1.912990   -1.914124    0.001134   1.000   0.000007   0.000054
        558    14   -1.912989   -1.914098    0.001109   1.000   0.000007   0.000052
        559    14   -1.912989   -1.914069    0.001081   1.000   0.000007   0.000051
        560    13   -1.912989   -1.914038    0.001049   1.000   0.000006   0.000050
        561    14   -1.912989   -1.914006    0.001017   1.000   0.000006   0.000048
        562    13   -1.912990   -1.913975    0.000985   1.000   0.000006   0.000047
        563    13   -1.912991   -1.913946    0.000955   1.000   0.000006   0.000046
        564    13   -1.912993   -1.913920    0.000928   1.000   0.000005   0.000045
        565    14   -1.912994   -1.913897    0.000904   1.000   0.000005   0.000044
        566    16   -1.912995   -1.913876    0.000881   1.000   0.000005   0.000043
        567    12   -1.912996   -1.913857    0.000861   1.000   0.000005   0.000042
        568    13   -1.912997   -1.913839    0.000842   1.000   0.000004   0.000040
        569    14   -1.912997   -1.913820    0.000823   1.000   0.000004   0.000039
        570    13   -1.912997   -1.913801    0.000804   1.000   0.000004   0.000038
        571    13   -1.912997   -1.913782    0.000784   1.000   0.000004   0.000037
        572    16   -1.912998   -1.913762    0.000764   1.000   0.000004   0.000037
        573    13   -1.912998   -1.913742    0.000744   1.000   0.000004   0.000036
        574    13   -1.912998   -1.913723    0.000724   1.000   0.000003   0.000035
        575    12   -1.912999   -1.913704    0.000705   1.000   0.000003   0.000034
        576    13   -1.912999   -1.913685    0.000686   1.000   0.000003   0.000033
        577    14   -1.913000   -1.913668    0.000668   1.000   0.000003   0.000032
        578    14   -1.913000   -1.913651    0.000651   1.000   0.000003   0.000031
        579    16   -1.913001   -1.913635    0.000635   1.000   0.000003   0.000031
        580    14   -1.913001   -1.913620    0.000619   1.000   0.000003   0.000030
        581    11   -1.913001   -1.913605    0.000604   1.000   0.000003   0.000029
        582    14   -1.913002   -1.913591    0.000589   1.000   0.000003   0.000028
        583    13   -1.913002   -1.913576    0.000575   1.000   0.000002   0.000028
        584    16   -1.913002   -1.913562    0.000560   1.000   0.000002   0.000027
        585    13   -1.913002   -1.913548    0.000546   1.000   0.000002   0.000026
        586    14   -1.913003   -1.913535    0.000532   1.000   0.000002   0.000026
        587    13   -1.913003   -1.913521    0.000518   1.000   0.000002   0.000025
        588    14   -1.913003   -1.913508    0.000505   1.000   0.000002   0.000024
        589    14   -1.913003   -1.913496    0.000492   1.000   0.000002   0.000024
        590    16   -1.913003   -1.913483    0.000480   1.000   0.000002   0.000023
        591    13   -1.913004   -1.913471    0.000468   1.000   0.000002   0.000023
        592    14   -1.913004   -1.913460    0.000456   1.000   0.000002   0.000022
        593    13   -1.913004   -1.913449    0.000444   1.000   0.000002   0.000021
        594    14   -1.913004   -1.913438    0.000433   1.000   0.000002   0.000021
        595    13   -1.913004   -1.913427    0.000423   1.000   0.000002   0.000020
        596    16   -1.913005   -1.913416    0.000412   1.000   0.000002   0.000020
        597    13   -1.913005   -1.913406    0.000402   1.000   0.000002   0.000019
        598    14   -1.913005   -1.913396    0.000391   1.000   0.000002   0.000019
        599    13   -1.913005   -1.913387    0.000382   1.000   0.000002   0.000018
        600    14   -1.913005   -1.913377    0.000372   1.000   0.000002   0.000018
        601    14   -1.913005   -1.913368    0.000363   1.000   0.000001   0.000017
        602    16   -1.913005   -1.913359    0.000353   1.000   0.000001   0.000017
        603    13   -1.913005   -1.913350    0.000345   1.000   0.000001   0.000017
        604    14   -1.913006   -1.913341    0.000336   1.000   0.000001   0.000016
        605    13   -1.913006   -1.913333    0.000327   1.000   0.000001   0.000016
        606    14   -1.913006   -1.913325    0.000319   1.000   0.000001   0.000015
        607    14   -1.913006   -1.913317    0.000311   1.000   0.000001   0.000015
        608    14   -1.913006   -1.913309    0.000303   1.000   0.000001   0.000015
        609    16   -1.913006   -1.913302    0.000296   1.000   0.000001   0.000014
        610    13   -1.913006   -1.913294    0.000288   1.000   0.000001   0.000014
        611    13   -1.913006   -1.913287    0.000281   1.000   0.000001   0.000014
        612    15   -1.913006   -1.913280    0.000274   1.000   0.000001   0.000013
        613    13   -1.913006   -1.913274    0.000267   1.000   0.000001   0.000013
        614    13   -1.913006   -1.913267    0.000261   1.000   0.000001   0.000013
        615    13   -1.913006   -1.913260    0.000254   1.000   0.000001   0.000012
        616    13   -1.913006   -1.913254    0.000248   1.000   0.000001   0.000012
        617    13   -1.913007   -1.913248    0.000241   1.000   0.000001   0.000012
        618    13   -1.913007   -1.913242    0.000235   1.000   0.000001   0.000011
        619    13   -1.913007   -1.913236    0.000229   1.000   0.000001   0.000011
        620    13   -1.913007   -1.913230    0.000224   1.000   0.000001   0.000011
        621    14   -1.913007   -1.913225    0.000218   1.000   0.000001   0.000010
        622    13   -1.913007   -1.913219    0.000213   1.000   0.000001   0.000010
        623    14   -1.913007   -1.913214    0.000207   1.000   0.000001   0.000010
        624    13   -1.913007   -1.913209    0.000202   1.000   0.000001   0.000010
        625    14   -1.913007   -1.913204    0.000197   1.000   0.000001   0.000009
        626    13   -1.913007   -1.913199    0.000192   1.000   0.000001   0.000009
        627    14   -1.913007   -1.913194    0.000187   1.000   0.000001   0.000009
        628    13   -1.913007   -1.913190    0.000183   1.000   0.000001   0.000009
        629    13   -1.913007   -1.913185    0.000178   1.000   0.000001   0.000009
        630    14   -1.913007   -1.913181    0.000174   1.000   0.000001   0.000008
        631    13   -1.913007   -1.913177    0.000169   1.000   0.000001   0.000008
        632    12   -1.913007   -1.913172    0.000165   1.000   0.000001   0.000008
        633    13   -1.913007   -1.913168    0.000161   1.000   0.000001   0.000008
        634    13   -1.913007   -1.913164    0.000157   1.000   0.000001   0.000008
        635    12   -1.913007   -1.913160    0.000153   1.000   0.000001   0.000007
        636    13   -1.913007   -1.913157    0.000149   1.000   0.000001   0.000007
        637    14   -1.913007   -1.913153    0.000146   1.000   0.000001   0.000007
        638    13   -1.913007   -1.913149    0.000142   1.000   0.000001   0.000007
        639    11   -1.913007   -1.913146    0.000138   1.000   0.000001   0.000007
        640    12   -1.913007   -1.913142    0.000135   1.000   0.000001   0.000006
        641    13   -1.913007   -1.913139    0.000132   1.000   0.000001   0.000006
        642    14   -1.913007   -1.913136    0.000128   1.000   0.000001   0.000006
        643    13   -1.913007   -1.913133    0.000125   1.000   0.000001   0.000006
        644    11   -1.913008   -1.913130    0.000122   1.000   0.000001   0.000006
        645    13   -1.913008   -1.913127    0.000119   1.000   0.000001   0.000006
        646    13   -1.913008   -1.913124    0.000116   1.000   0.000001   0.000006
        647    14   -1.913008   -1.913121    0.000113   1.000   0.000001   0.000005
        648    13   -1.913008   -1.913118    0.000110   1.000   0.000001   0.000005
        649    12   -1.913008   -1.913115    0.000108   1.000   0.000001   0.000005
        650    13   -1.913008   -1.913113    0.000105   1.000   0.000001   0.000005
        651    13   -1.913008   -1.913110    0.000102   1.000   0.000001   0.000005
        652    13   -1.913008   -1.913107    0.000100   1.000   0.000001   0.000005
        653    13   -1.913008   -1.913105    0.000097   1.000   0.000001   0.000005
        654    13   -1.913008   -1.913103    0.000095   1.000   0.000001   0.000005
        655    14   -1.913008   -1.913100    0.000093   1.000   0.000001   0.000004
        656    13   -1.913008   -1.913098    0.000090   1.000   0.000001   0.000004
        657    14   -1.913008   -1.913096    0.000088   1.000   0.000001   0.000004
        658    13   -1.913008   -1.913094    0.000086   1.000   0.000001   0.000004
        659    14   -1.913008   -1.913091    0.000084   1.000   0.000001   0.000004
        660    13   -1.913008   -1.913089    0.000082   1.000   0.000001   0.000004
        661    14   -1.913008   -1.913087    0.000080   1.000   0.000001   0.000004
        662    13   -1.913008   -1.913085    0.000078   1.000   0.000001   0.000004
        663    14   -1.913008   -1.913084    0.000076   1.000   0.000001   0.000004
        664    16   -1.913008   -1.913082    0.000074   1.000   0.000001   0.000004
        665    12   -1.913008   -1.913080    0.000072   1.000   0.000001   0.000003
        666    13   -1.913008   -1.913078    0.000070   1.000   0.000001   0.000003
        667    13   -1.913008   -1.913076    0.000069   1.000   0.000001   0.000003
        668    13   -1.913008   -1.913075    0.000067   1.000   0.000001   0.000003
        669    13   -1.913008   -1.913073    0.000065   1.000   0.000001   0.000003
        670    16   -1.913008   -1.913071    0.000064   1.000   0.000001   0.000003
        671    13   -1.913008   -1.913070    0.000062   1.000   0.000001   0.000003
        672    15   -1.913008   -1.913068    0.000061   1.000   0.000001   0.000003
        673    13   -1.913008   -1.913067    0.000059   1.000   0.000001   0.000003
        674    16   -1.913008   -1.913065    0.000058   1.000   0.000001   0.000003
        675    13   -1.913008   -1.913064    0.000056   1.000   0.000001   0.000003
        676    13   -1.913008   -1.913063    0.000055   1.000   0.000001   0.000003
        677    13   -1.913008   -1.913061    0.000054   1.000   0.000001   0.000003
        678    14   -1.913008   -1.913060    0.000052   1.000   0.000001   0.000002
        679    16   -1.913008   -1.913059    0.000051   1.000   0.000001   0.000002
        680    15   -1.913008   -1.913058    0.000050   1.000   0.000001   0.000002
        681    12   -1.913008   -1.913056    0.000048   1.000   0.000001   0.000002
        682    16   -1.913008   -1.913055    0.000047   1.000   0.000001   0.000002
        683    15   -1.913008   -1.913054    0.000046   1.000   0.000001   0.000002
        684    12   -1.913008   -1.913053    0.000045   1.000   0.000001   0.000002
        685    16   -1.913008   -1.913052    0.000044   1.000   0.000001   0.000002
        686    15   -1.913008   -1.913051    0.000043   1.000   0.000001   0.000002
        687    12   -1.913008   -1.913050    0.000042   1.000   0.000001   0.000002
        688    16   -1.913008   -1.913049    0.000041   1.000   0.000001   0.000002
        689    15   -1.913008   -1.913048    0.000040   1.000   0.000001   0.000002
        690    12   -1.913008   -1.913047    0.000039   1.000   0.000001   0.000002
        691    16   -1.913008   -1.913046    0.000038   1.000   0.000001   0.000002
        692    15   -1.913008   -1.913045    0.000037   1.000   0.000001   0.000002
        693    12   -1.913008   -1.913044    0.000036   1.000   0.000001   0.000002
        694    16   -1.913008   -1.913043    0.000035   1.000   0.000001   0.000002
        695    15   -1.913008   -1.913042    0.000034   1.000   0.000001   0.000002
        696    12   -1.913008   -1.913042    0.000034   1.000   0.000001   0.000002
        697    16   -1.913008   -1.913041    0.000033   1.000   0.000001   0.000002
        698    15   -1.913008   -1.913040    0.000032   1.000   0.000001   0.000001
        699    12   -1.913008   -1.913039    0.000031   1.000   0.000001   0.000001
        700    16   -1.913008   -1.913038    0.000030   1.000   0.000001   0.000001
        701    15   -1.913008   -1.913038    0.000030   1.000   0.000001   0.000001
        702    12   -1.913008   -1.913037    0.000029   1.000   0.000001   0.000001
        703    16   -1.913008   -1.913036    0.000028   1.000   0.000001   0.000001
        704    15   -1.913008   -1.913036    0.000028   1.000   0.000001   0.000001
        705    12   -1.913008   -1.913035    0.000027   1.000   0.000001   0.000001
        706    16   -1.913008   -1.913034    0.000026   1.000   0.000001   0.000001
        707    15   -1.913008   -1.913034    0.000026   1.000   0.000001   0.000001
        708    12   -1.913008   -1.913033    0.000025   1.000   0.000001   0.000001
        709    16   -1.913008   -1.913033    0.000025   1.000   0.000001   0.000001
        710    15   -1.913008   -1.913032    0.000024   1.000   0.000001   0.000001
        711    12   -1.913008   -1.913031    0.000023   1.000   0.000001   0.000001
        712    16   -1.913008   -1.913031    0.000023   1.000   0.000001   0.000001
        713    15   -1.913008   -1.913030    0.000022   1.000   0.000001   0.000001
        714    12   -1.913008   -1.913030    0.000022   1.000   0.000001   0.000001
        715    16   -1.913008   -1.913029    0.000021   1.000   0.000001   0.000001
        716    15   -1.913008   -1.913029    0.000021   1.000   0.000001   0.000001
        717    12   -1.913008   -1.913028    0.000020   1.000   0.000001   0.000001
        718    16   -1.913008   -1.913028    0.000020   1.000   0.000001   0.000001
        719    15   -1.913008   -1.913027    0.000019   1.000   0.000001   0.000001
        720    12   -1.913008   -1.913027    0.000019   1.000   0.000001   0.000001
        721    16   -1.913008   -1.913027    0.000019   1.000   0.000001   0.000001
        722    15   -1.913008   -1.913026    0.000018   1.000   0.000001   0.000001
        723    12   -1.913008   -1.913026    0.000018   1.000   0.000001   0.000001
        724    16   -1.913008   -1.913025    0.000017   1.000   0.000001   0.000001
        725    15   -1.913008   -1.913025    0.000017   1.000   0.000001   0.000001
        726    12   -1.913008   -1.913024    0.000016   1.000   0.000001   0.000001
        727    16   -1.913008   -1.913024    0.000016   1.000   0.000001   0.000001
        728    15   -1.913008   -1.913024    0.000016   1.000   0.000001   0.000001
        729    12   -1.913008   -1.913023    0.000015   1.000   0.000001   0.000001
        730    16   -1.913008   -1.913023    0.000015   1.000   0.000001   0.000001
        731    15   -1.913008   -1.913023    0.000015   1.000   0.000001   0.000001
        732    12   -1.913008   -1.913022    0.000014   1.000   0.000001   0.000001
        733    16   -1.913008   -1.913022    0.000014   1.000   0.000001   0.000001
        734    15   -1.913008   -1.913022    0.000014   1.000   0.000001   0.000001
        735    12   -1.913008   -1.913021    0.000013   1.000   0.000001   0.000001
        736    16   -1.913008   -1.913021    0.000013   1.000   0.000001   0.000001
        737    14   -1.913008   -1.913021    0.000013   1.000   0.000001   0.000001
        738    15   -1.913008   -1.913021    0.000013   1.000   0.000001   0.000001
        739    16   -1.913008   -1.913020    0.000012   1.000   0.000001   0.000001
        740    15   -1.913008   -1.913020    0.000012   1.000   0.000001   0.000001
        741    15   -1.913008   -1.913020    0.000012   1.000   0.000001   0.000000
        742    15   -1.913008   -1.913020    0.000011   1.000   0.000001   0.000000
        743    16   -1.913008   -1.913019    0.000011   1.000   0.000001   0.000000
        744    12   -1.913008   -1.913019    0.000011   1.000   0.000001   0.000000
        745    16   -1.913008   -1.913019    0.000011   1.000   0.000001   0.000000
        746    15   -1.913008   -1.913019    0.000011   1.000   0.000001   0.000000
        747    14   -1.913008   -1.913018    0.000010   1.000   0.000001   0.000000
        748    15   -1.913008   -1.913018    0.000010   1.000   0.000001   0.000000
        749    16   -1.913008   -1.913018    0.000010   1.000   0.000001   0.000000

        ==> Orbital Optimization <==

            Orbital Optimization converged in   3 iterations 
            Total energy change: -1.771359e-05
            Final gradient norm: 2.394088e-05

        750    17   -1.913182   -1.912567    0.000615   1.000   0.000018   0.000021
        751    12   -1.913192   -1.912874    0.000319   1.000   0.000018   0.000014
        752    16   -1.913138   -1.913150    0.000012   1.000   0.000012   0.000013
        753    15   -1.913081   -1.913347    0.000266   1.000   0.000008   0.000012
        754    14   -1.913045   -1.913456    0.000411   1.000   0.000006   0.000011
        755    16   -1.913027   -1.913485    0.000458   1.000   0.000005   0.000010
        756    15   -1.913017   -1.913449    0.000432   1.000   0.000004   0.000010
        757    13   -1.913009   -1.913366    0.000358   1.000   0.000005   0.000009
        758    12   -1.913003   -1.913263    0.000260   1.000   0.000005   0.000008
        759    13   -1.913002   -1.913163    0.000161   1.000   0.000005   0.000008
        760    13   -1.913007   -1.913088    0.000081   1.000   0.000004   0.000008
        761    11   -1.913015   -1.913047    0.000031   1.000   0.000003   0.000008
        762    14   -1.913025   -1.913041    0.000016   1.000   0.000003   0.000007
        763    16   -1.913034   -1.913064    0.000030   1.000   0.000002   0.000007
        764    15   -1.913038   -1.913102    0.000064   1.000   0.000002   0.000007
        765    12   -1.913039   -1.913144    0.000105   1.000   0.000002   0.000007
        766    16   -1.913037   -1.913179    0.000141   1.000   0.000002   0.000006
        767    15   -1.913033   -1.913199    0.000166   1.000   0.000002   0.000006
        768    11   -1.913029   -1.913204    0.000175   1.000   0.000002   0.000006
        769    11   -1.913025   -1.913195    0.000170   1.000   0.000002   0.000006
[...]
   12    -0.07555025274178    -0.89872712928610    -0.01300065562674    -0.02894616348604    -0.01303766144721

                11                  12

    1     0.07555025274177     0.02894616348604
    2     0.06861729913174    -0.00918438187370
    3     0.00065281116820    -0.00996252991961
    4     0.00226309214444    -0.01109299024649
    5     0.00000005078947     1.49641185881708
    6     0.00000001364132    -0.00034265148963
    7    -0.00000000759228    -0.00300529243283
    8    -0.00000002111141    -0.00060492569617
    9     0.04726613440873     0.01109300686673
   10     0.01016107756208    -0.00996003348390
   11    -0.89355170488337    -0.00921246257253
   12    -0.89788782434035    -0.02893829075809



norm is       0.964394752696
norm is       0.961511656199
norm is       0.751663383497
norm is       0.751412596100
      0.124191409461
          0.600000000000  Irrep: 1 Size: 12 x 12

                 1                   2                   3                   4                   5

    1    -0.01869525606375     0.90378113085901     0.01581714476553    -0.01869249437889     0.01579301644329
    2    -0.00436038991393     0.89592902461279     0.07215480365392     0.00437504218532    -0.07214265298551
    3    -0.00079014069963     0.01229627065682    -0.69754627395789    -0.00079024368907    -0.69770891471679
    4    -0.00103223985298     0.05626060949428    -0.69513776421657     0.00103105677373     0.69497580459726
    5     0.00073674921156     0.00000006013878    -0.00000000065304    -0.00649909991056     0.00000004319907
    6     0.83019831904784     0.00000001637718    -0.00000000113645     0.00047116668273     0.00000000018387
    7     0.00047116659486    -0.00000000910951    -0.00000000018249     0.83019831904779     0.00000000113496
    8     0.00649909991062     0.00000002450552     0.00000004319279    -0.00073674921217    -0.00000000065250
    9     0.00103105677373     0.00335210162565     0.00189852401684    -0.00103223985298    -0.00189901714112
   10     0.00079024368907    -0.00089766354954     0.00230793393757     0.00079014069963     0.00230739117212
   11     0.00437504218532     0.08280136296266     0.00218778625556    -0.00436038991393    -0.00218557301114
   12    -0.01869249437889     0.09203725695081     0.00050975113113    -0.01869525606375     0.00051123830195

                 6                   7                   8                   9                  10

    1     0.90318656162827     0.09203725695082     0.00051123830195     0.03486704835656     0.00050975113113
    2    -0.89652501942282     0.08280136296266    -0.00218557301114    -0.01071112127686     0.00218778625556
    3     0.01229193780570     0.00089766354954    -0.00230739117212    -0.01179544608291    -0.00230793393757
    4    -0.05627616066012     0.00335210162565    -0.00189901714111    -0.01337770219508     0.00189852401684
    5     0.00000002450545    -0.00000002450552     0.00000000065250     0.00119429914232    -0.00000004319279
    6     0.00000000911088    -0.00000000910951     0.00000000113496     0.00360664918216    -0.00000000018249
    7    -0.00000001637883     0.00000001637718     0.00000000018387     0.00040803334964    -0.00000000113645
    8     0.00000006014263    -0.00000006013878    -0.00000004319907     1.49551268846520     0.00000000065304
    9    -0.00335145324777     0.05626060949428     0.69497580459706     0.01337619005477    -0.69513776421677
   10    -0.00089875160746    -0.01229627065681     0.69770891471699     0.01179997839254     0.69754627395769
   11    -0.08286230976616     0.89592902461280    -0.07214265298551     0.01068694190193     0.07215480365392
   12     0.09198237712106     0.90378113085900     0.01579301644329     0.03487329132679     0.01581714476553

                11                  12

    1     0.09198237712106     0.03487329132679
    2    -0.08286230976617     0.01068694190193
    3     0.00089875160746    -0.01179997839254
    4    -0.00335145324777     0.01337619005477
    5    -0.00000006014263    -1.49551268846512
    6    -0.00000001637883     0.00040803334971
    7     0.00000000911088     0.00360664918213
    8    -0.00000002450545    -0.00119429924238
    9    -0.05627616066011    -0.01337770219508
   10    -0.01229193780571     0.01179544608290
   11    -0.89652501942281    -0.01071112127686
   12     0.90318656162828     0.03486704835656



norm is       0.968389890915
norm is       0.964484583828
norm is       0.751648747905
norm is       0.751205461113
      0.120124115870
          0.700000000000  Irrep: 1 Size: 12 x 12

                 1                   2                   3                   4                   5

    1    -0.02232132944263     0.91003493482421     0.01860648526121    -0.02231910241027     0.01859456090709
    2     0.00502074991860    -0.89980632736197    -0.08368287460219    -0.00503401078345     0.08366531204602
    3     0.00099594754504    -0.01440269020908     0.69748051512905     0.00099613726952     0.69767692548341
    4     0.00127856927116    -0.06502707642105     0.69416900619116    -0.00127721207872    -0.69397341586157
    5    -0.00084324870776    -0.00000006849356     0.00000000085975     0.00758371720191    -0.00000005004976
    6     0.83019822975110     0.00000001912393    -0.00000000135198     0.00054545689283     0.00000000021695
    7     0.00054545681680    -0.00000001063448    -0.00000000021533     0.83019822975106     0.00000000135025
    8     0.00758371720262     0.00000002690785     0.00000005004252    -0.00084324870892    -0.00000000085918
    9    -0.00127721207872    -0.00463233801302    -0.00226823006236     0.00127856927116     0.00226892550701
   10    -0.00099613726952     0.00118835440123    -0.00271059138435    -0.00099594754504    -0.00270982453280
   11     0.00503401078345     0.09737771251537     0.00284827710896    -0.00502074991860    -0.00284553823064
   12     0.02231910241027    -0.10917730982844    -0.00077381368841     0.02232132944263    -0.00077606587003

                 6                   7                   8                   9                  10

    1     0.90960919075715     0.10917730982844     0.00077606587003     0.04027698232273     0.00077381368841
    2     0.90023310770597    -0.09737771251537     0.00284553823064     0.01211062560205    -0.00284827710896
    3    -0.01440078855083    -0.00118835440123     0.00270982453280     0.01356771792166     0.00271059138435
    4     0.06504432697528    -0.00463233801302     0.00226892550701     0.01567334105197    -0.00226823006236
    5    -0.00000002690774     0.00000002690785    -0.00000000085918    -0.00202040517768     0.00000005004252
    6     0.00000001063609    -0.00000001063448     0.00000000135025     0.00421164506038    -0.00000000021533
    7    -0.00000001912586     0.00000001912393     0.00000000021695     0.00046541004440    -0.00000000135198
    8     0.00000006849806    -0.00000006849356    -0.00000005004976     1.49433940385526     0.00000000085975
    9     0.00463174444151    -0.06502707642105    -0.69397341586155    -0.01567081503574     0.69416900619118
   10     0.00118978619398     0.01440269020908    -0.69767692548343    -0.01357374208744    -0.69748051512903
   11    -0.09742932309801     0.89980632736196    -0.08366531204602     0.01209037040686     0.08368287460219
   12    -0.10913139527742    -0.91003493482422    -0.01859456090709    -0.04028178564685    -0.01860648526121

                11                  12

    1     0.10913139527742     0.04028178564685
    2     0.09742932309801    -0.01209037040686
    3    -0.00118978619398     0.01357374208744
    4     0.00463174444151    -0.01567081503574
    5     0.00000006849806     1.49433940385516
    6    -0.00000001912586     0.00046541004333
    7     0.00000001063609     0.00421164506156
    8    -0.00000002690774    -0.00202040524737
    9     0.06504432697528     0.01567334105197
   10     0.01440078855083    -0.01356771792166
   11    -0.90023310770598    -0.01211062560205
   12    -0.90960919075714    -0.04027698232273



norm is       0.973255202712
norm is       0.968074933753
norm is       0.751637516796
norm is       0.750960298468
      0.116107777377
          0.800000000000  Irrep: 1 Size: 12 x 12

                 1                   2                   3                   4                   5

    1    -0.02614926486381     0.91741101023730     0.02137058327355    -0.02614766335708     0.02137253667157
    2     0.00566338692447    -0.90442232888791    -0.09498938988644    -0.00567473996148     0.09496596451951
    3     0.00122325889442    -0.01645961104121     0.69742136331723     0.00122352729875     0.69763526290803
    4     0.00154250805576    -0.07351908898758     0.69308085054405    -0.00154100302175    -0.69286795701760
    5     0.00092016716970     0.00000007546889    -0.00000000111052    -0.00868135346560     0.00000005677566
    6    -0.83019915319928    -0.00000002187962     0.00000000157478    -0.00061891667301    -0.00000000025065
    7     0.00061891667300    -0.00000001216548    -0.00000000024877     0.83019915319928     0.00000000157279
    8    -0.00868135346565    -0.00000002792882    -0.00000005676755     0.00092016716957     0.00000000111001
    9    -0.00154100302175    -0.00609259454643    -0.00265762799776     0.00154250805576     0.00265848895995
   10    -0.00122352729875     0.00152558865285    -0.00311751526885    -0.00122325889442    -0.00311654092319
   11     0.00567473996148     0.11234932571608     0.00360784837272    -0.00566338692447    -0.00360447995190
   12    -0.02614766335708     0.12700966761185     0.00108315147726    -0.02614926486381     0.00108637359411

                 6                   7                   8                   9                  10

    1     0.91712962156404     0.12700966761185     0.00108637359411     0.04479909336643     0.00108315147726
    2     0.90470435864542    -0.11234932571608     0.00360447995190     0.01341668816053    -0.00360784837272
    3    -0.01645922823987    -0.00152558865285     0.00311654092319     0.01529437956730     0.00311751526885
    4     0.07353811416816    -0.00609259454643     0.00265848895995     0.01797542129770    -0.00265762799776
    5     0.00000002792799    -0.00000002792882     0.00000000111001     0.00286664542349    -0.00000005676755
    6    -0.00000001216733     0.00000001216548    -0.00000000157279    -0.00482497501707     0.00000000024877
    7    -0.00000002188183     0.00000002187962     0.00000000025065     0.00050581250702    -0.00000000157478
    8    -0.00000007547339     0.00000007546889     0.00000005677566    -1.49311000548800    -0.00000000111052
    9     0.00609211065850    -0.07351908898758    -0.69286795701761    -0.01797206321291     0.69308085054404
   10     0.00152734988145     0.01645961104121    -0.69763526290802    -0.01530169152456    -0.69742136331724
   11    -0.11238919231553     0.90442232888791    -0.09496596451951     0.01340192753041     0.09498938988644
   12     0.12697520739004     0.91741101023730     0.02137253667157     0.04480229615202     0.02137058327355

                11                  12

    1     0.12697520739004     0.04480229615202
    2     0.11238919231553    -0.01340192753041
    3    -0.00152734988145     0.01530169152456
    4     0.00609211065850    -0.01797206321291
    5    -0.00000007547339    -1.49311000548804
    6     0.00000002188183    -0.00050581250704
    7     0.00000001216733     0.00482497501717
    8     0.00000002792799     0.00286664540238
    9     0.07353811416816     0.01797542129770
   10     0.01645922823986    -0.01529437956730
   11    -0.90470435864542    -0.01341668816053
   12     0.91712962156404     0.04479909336643



norm is       0.978906570546
norm is       0.972306073874
norm is       0.751629714895
norm is       0.750680464789
      0.112153118096
          0.900000000000  Irrep: 1 Size: 12 x 12

                 1                   2                   3                   4                   5

    1     0.03017639075821    -0.92578638888636    -0.02411075027158     0.03017512794449    -0.02412186879751
    2    -0.00628796813084     0.90981896252233     0.10605559574407     0.00629858639379    -0.10602734207078
    3    -0.00147228241616     0.01846475431320    -0.69736492013489    -0.00147262910989    -0.69758940626488
    4    -0.00182256357269     0.08170879798495    -0.69189551416460     0.00182093019354     0.69167225119296
    5     0.00096076755639     0.00000008154585    -0.00000000136587    -0.00979631253481     0.00000006344250
    6    -0.83020118352954    -0.00000002463629     0.00000000180503    -0.00069143129200    -0.00000000028474
    7     0.00069143129207    -0.00000001369471    -0.00000000028261     0.83020118352954     0.00000000180279
    8     0.00979631253461     0.00000002802518     0.00000006343357    -0.00096076755758    -0.00000000136546
    9     0.00182093019354     0.00771974960293     0.00306844761885    -0.00182256357269    -0.00306945679327
   10     0.00147262910989    -0.00190639896893     0.00352878077224     0.00147228241616     0.00352760004357
   11    -0.00629858639379    -0.12779275713601    -0.00447572142134     0.00628796813084     0.00447169320073
   12     0.03017512794449    -0.14541840322738    -0.00143785045741     0.03017639075821    -0.00144197666662

                 6                   7                   8                   9                  10

    1    -0.92557910468379    -0.14541840322738    -0.00144197666662    -0.04876655850104    -0.00143785045741
    2    -0.91002645613945     0.12779275713601    -0.00447169320073    -0.01463794587038     0.00447572142134
    3     0.01846549130010     0.00190639896893    -0.00352760004357    -0.01700639618621    -0.00352878077224
    4    -0.08172958017361     0.00771974960293    -0.00306945679327    -0.02027936650243     0.00306844761885
    5     0.00000002802381    -0.00000002802518     0.00000000136546     0.00338560232972    -0.00000006343357
    6    -0.00000001369679     0.00000001369471    -0.00000000180279    -0.00544800226032     0.00000000028261
    7    -0.00000002463878     0.00000002463629     0.00000000028474     0.00052656009352    -0.00000000180503
    8     0.00000008155055    -0.00000008154585    -0.00000006344250     1.49217301110588     0.00000000136587
    9    -0.00771941393687     0.08170879798495     0.69167225119299     0.02027523947101    -0.69189551416456
   10    -0.00190848525978    -0.01846475431320     0.69758940626484     0.01701490413503     0.69736492013493
   11     0.12782646079487    -0.90981896252232     0.10602734207078    -0.01462626761221    -0.10605559574407
   12    -0.14538998283972    -0.92578638888636    -0.02412186879751    -0.04876888792025    -0.02411075027158

                11                  12

    1    -0.14538998283972    -0.04876888792025
    2    -0.12782646079487     0.01462626761221
    3     0.00190848525978    -0.01701490413503
    4    -0.00771941393687     0.02027523947101
    5    -0.00000008155055    -1.49217301110585
    6     0.00000002463878    -0.00052656009157
    7     0.00000001369679     0.00544800225994
    8    -0.00000002802381    -0.00338560234427
    9    -0.08172958017361    -0.02027936650243
   10    -0.01846549130009     0.01700639618621
   11     0.91002645613945     0.01463794587038
   12    -0.92557910468379    -0.04876655850104



norm is       0.985177115171
norm is       0.977207116594
norm is       0.751625588159
norm is       0.750369785901
      0.108279780202
          1.000000000000  Irrep: 1 Size: 12 x 12

                 1                   2                   3                   4                   5

    1     0.03440805619995    -0.93520290857900    -0.02685654515274     0.03440705227234    -0.02687552024704
    2     0.00689541738901    -0.91609653727905    -0.11686940637837    -0.00690560204389     0.11683661808972
    3     0.00174306786665    -0.02043758971628     0.69730928577306     0.00174349639799     0.69754121724294
    4    -0.00211725364393     0.08957256029234    -0.69063323829191     0.00211550677271     0.69040276966648
    5    -0.00097968559385    -0.00000008769772     0.00000000159649     0.01092116576805    -0.00000007008933
    6    -0.83020425804588    -0.00000002738761     0.00000000204261    -0.00076283719288    -0.00000000031915
    7    -0.00076283719285     0.00000001521622     0.00000000031677    -0.83020425804588    -0.00000000204012
    8    -0.01092116576829    -0.00000002815838    -0.00000007007959     0.00097968559280     0.00000000159619
    9    -0.00211550677271    -0.00949951302390    -0.00350242181304     0.00211725364393     0.00350357141641
   10     0.00174349639799    -0.00232570822458     0.00394440988631     0.00174306786665     0.00394301565088
   11    -0.00690560204389    -0.14380077415602    -0.00546354324411     0.00689541738901     0.00545879961465
   12     0.03440705227234    -0.16449091265283    -0.00184953688214     0.03440805619995    -0.00185462547354

                 6                   7                   8                   9                  10

    1    -0.93504617813640    -0.16449091265283    -0.00185462547354    -0.05301568013784    -0.00184953688214
    2     0.91625302442588    -0.14380077415602     0.00545879961465     0.01578031287882    -0.00546354324411
    3    -0.02043926655202    -0.00232570822458     0.00394301565088     0.01871024344359     0.00394440988631
    4    -0.08959500741355     0.00949951302390    -0.00350357141641    -0.02258059529295     0.00350242181304
    5    -0.00000002815650     0.00000002815838    -0.00000000159619    -0.00352950357991     0.00000007007959
    6    -0.00000001521854     0.00000001521622    -0.00000000204012    -0.00607608117851     0.00000000031677
    7     0.00000002739037    -0.00000002738761    -0.00000000031915    -0.00053633109463     0.00000000204261
    8    -0.00000008770267     0.00000008769772     0.00000007008933    -1.49157713410375    -0.00000000159649
    9     0.00949935275667    -0.08957256029235    -0.69040276966646    -0.02257571531179     0.69063323829193
   10    -0.00232812533275    -0.02043758971628     0.69754121724296     0.01871990841598     0.69730928577304
   11     0.14382971637307    -0.91609653727905     0.11683661808972    -0.01577092023367    -0.11686940637837
   12    -0.16446720963258    -0.93520290857901    -0.02687552024704    -0.05301735660162    -0.02685654515274

                11                  12

    1    -0.16446720963258    -0.05301735660162
    2     0.14382971637307    -0.01577092023367
    3    -0.00232812533275     0.01871990841598
    4    -0.00949935275667     0.02257571531179
    5     0.00000008770267     1.49157713410373
    6     0.00000002739037    -0.00053633109666
    7    -0.00000001521854    -0.00607608117893
    8     0.00000002815650     0.00352950359014
    9     0.08959500741355     0.02258059529295
   10    -0.02043926655203     0.01871024344359
   11     0.91625302442588     0.01578031287882
   12    -0.93504617813640    -0.05301568013784



norm is       0.992101235350
norm is       0.982813904096
norm is       0.751625184199
norm is       0.750032476388
      0.104480154475

    Reference energy                  -1.913026777389

    * AC correlation energy           -0.021236576364
    * AC total energy                 -1.934263353753


*** tstop() called on ed4 at Tue Nov  6 13:38:46 2018
Module time:
	user time   =       0.79 seconds =       0.01 minutes
	system time =       0.13 seconds =       0.00 minutes
	total time  =          0 seconds =       0.00 minutes
Total time:
	user time   =     167.99 seconds =       2.80 minutes
	system time =      18.91 seconds =       0.32 minutes
	total time  =         42 seconds =       0.70 minutes

    Psi4 stopped on: Tuesday, 06 November 2018 01:38PM
    Psi4 wall time for execution: 0:00:41.78

*** Psi4 exiting successfully. Buy a developer a beer!
