
    -----------------------------------------------------------------------
          Psi4: An Open-Source Ab Initio Electronic Structure Package
                               Psi4 1.2rc3.dev4 

                         Git: Rev {psi4_N} 0e159c1 dirty


    R. M. Parrish, L. A. Burns, D. G. A. Smith, A. C. Simmonett,
    A. E. DePrince III, E. G. Hohenstein, U. Bozkaya, A. Yu. Sokolov,
    R. Di Remigio, R. M. Richard, J. F. Gonthier, A. M. James,
    H. R. McAlexander, A. Kumar, M. Saitow, X. Wang, B. P. Pritchard,
    P. Verma, H. F. Schaefer III, K. Patkowski, R. A. King, E. F. Valeev,
    F. A. Evangelista, J. M. Turney, T. D. Crawford, and C. D. Sherrill,
    J. Chem. Theory Comput. 13(7) pp 3185--3197 (2017).
    (doi: 10.1021/acs.jctc.7b00174)

    -----------------------------------------------------------------------


    Psi4 started on: Wednesday, 14 November 2018 10:44AM

    Process ID: 20032
    Host:       ed4
    PSIDATADIR: /edfs/users/namvu/software/psi4_May_18/intel-release/share/psi4
    Memory:     500.0 MiB
    Threads:    6
    
  ==> Input File <==

--------------------------------------------------------------------------
# PYTHONPATH must include directory above plugin directory.
#     Define either externally or here, then import plugin.
sys.path.insert(0, '/edfs/users/namvu/chem/')
import v2rdm_casscf
sys.path.insert(0, '/edfs/users/namvu/software')
import v2rdm_doci
sys.path.insert(0, '/edfs/users/namvu/chem/deprince-group/plugins/erpa/new_erpa')
import erpa

memory 8000 mb

molecule h4 {
 h
 h 1 R
 h 2 R 1 180.0
 h 3 R 2 180.0 1 180.0 
# h 4 R 3 180.0 2 180.0
# h 5 R 4 180.0 3 180.0
# h 6 R 5 180.0 4 180.0
# h 7 R 6 180.0 5 180.0
symmetry c1
}

Rvals=[3.9]

set {
  guess sad
  basis cc-pvdz
  scf_type df
  d_convergence 1e-8
  reference rhf
  maxiter 500
}
set v2rdm_doci {
  positivity dqg #t2
  tpdm_write_full true
  r_convergence  1e-6
  e_convergence  1e-5
  maxiter 1000000
  orbopt_one_step true
}
set v2rdm_casscf {
 nat_orbs true
# tpdm_guess hf
# constrain_spin true
# cg_convergence 1e-6
}
# optimize_orbitals true
# orbopt_active_active_rotations false
# semicanonicalize_orbitals false
# mu_update_frequency 500
# restricted_docc  [ 0, 0, 0, 0, 0, 0, 0, 0 ]
# active           [ 2, 0, 0, 0, 0, 2, 0, 0 ]
# molden_write true

set erpa {
 pruning_threshold 1e-6
 spin_adapt_erpa true
 adiabatic_connection true
}
for R in Rvals: #(0,40):
   #h4.R = 0.6 + 0.1 * R
   h4.R = R
   en, wfn = energy('v2rdm-doci',return_wfn=True)
   energy('erpa',ref_wfn=wfn)

--------------------------------------------------------------------------

  Memory set to   7.451 GiB by Python driver.
Molecule: geometry: Molecule is not complete, please use 'update_geometry'
                    once all variables are set.
Molecule: Setting geometry variable R to 3.900000

*** tstart() called on ed4
*** at Wed Nov 14 10:44:47 2018

   => Loading Basis Set <=

    Name: CC-PVDZ
    Role: ORBITAL
    Keyword: BASIS
    atoms 1-4 entry H          line    22 file /edfs/users/namvu/software/psi4_May_18/intel-release/share/psi4/basis/cc-pvdz.gbs 

    There are an even number of electrons - assuming singlet.
    Specify the multiplicity in the molecule input block.


         ---------------------------------------------------------
                                   SCF
            by Justin Turney, Rob Parrish, Andy Simmonett
                             and Daniel Smith
                              RHF Reference
                        6 Threads,   7629 MiB Core
         ---------------------------------------------------------

  ==> Geometry <==

    Molecular point group: c1
    Full point group: D_inf_h

    Geometry (in Angstrom), charge = 0, multiplicity = 1:

       Center              X                  Y                   Z               Mass       
    ------------   -----------------  -----------------  -----------------  -----------------
         H            0.000000000000     0.000000000000    -5.850000000000     1.007825032070
         H            0.000000000000     0.000000000000    -1.950000000000     1.007825032070
         H            0.000000000000     0.000000000000     1.950000000000     1.007825032070
         H            0.000000000000     0.000000000000     5.850000000000     1.007825032070

  Running in c1 symmetry.

  Rotational constants: A = ************  B =      0.21994  C =      0.21994 [cm^-1]
  Rotational constants: A = ************  B =   6593.75546  C =   6593.75546 [MHz]
  Nuclear repulsion =    0.587974676211111

  Charge       = 0
  Multiplicity = 1
  Electrons    = 4
  Nalpha       = 2
  Nbeta        = 2

  ==> Algorithm <==

  SCF Algorithm Type is DF.
  DIIS enabled.
  MOM disabled.
  Fractional occupation disabled.
  Guess Type is SAD.
  Energy threshold   = 1.00e-08
  Density threshold  = 1.00e-08
  Integral threshold = 0.00e+00

  ==> Primary Basis <==

  Basis Set: CC-PVDZ
    Blend: CC-PVDZ
    Number of shells: 12
    Number of basis function: 20
    Number of Cartesian functions: 20
    Spherical Harmonics?: true
    Max angular momentum: 1

   => Loading Basis Set <=

    Name: (CC-PVDZ AUX)
    Role: JKFIT
    Keyword: DF_BASIS_SCF
    atoms 1-4 entry H          line    51 file /edfs/users/namvu/software/psi4_May_18/intel-release/share/psi4/basis/cc-pvdz-jkfit.gbs 

  ==> Pre-Iterations <==

   -------------------------------------------------------
    Irrep   Nso     Nmo     Nalpha   Nbeta   Ndocc  Nsocc
   -------------------------------------------------------
     A         20      20       0       0       0       0
   -------------------------------------------------------
    Total      20      20       2       2       2       0
   -------------------------------------------------------

  ==> Integral Setup <==

  ==> DiskDFJK: Density-Fitted J/K Matrices <==

    J tasked:                  Yes
    K tasked:                  Yes
    wK tasked:                  No
    OpenMP threads:              6
    Integrals threads:           6
    Memory (MB):              5722
    Algorithm:                Core
    Integral Cache:           SAVE
    Schwarz Cutoff:          1E-12
    Fitting Condition:       1E-12

   => Auxiliary Basis Set <=

  Basis Set: (CC-PVDZ AUX)
    Blend: CC-PVDZ-JKFIT
    Number of shells: 36
    Number of basis function: 92
    Number of Cartesian functions: 100
    Spherical Harmonics?: true
    Max angular momentum: 2

  Minimum eigenvalue in the overlap matrix is 2.9070603836E-01.
  Using Symmetric Orthogonalization.

  SCF Guess: Superposition of Atomic Densities via on-the-fly atomic UHF.

  ==> Iterations <==

                           Total Energy        Delta E     RMS |[F,P]|

   @DF-RHF iter   0:    -1.37192662229930   -1.37193e+00   9.57704e-03 
   @DF-RHF iter   1:    -1.56333637885088   -1.91410e-01   2.90876e-03 
   @DF-RHF iter   2:    -1.56771429773086   -4.37792e-03   1.08288e-03 DIIS
   @DF-RHF iter   3:    -1.56997516790466   -2.26087e-03   5.96289e-04 DIIS
   @DF-RHF iter   4:    -1.57060726329589   -6.32095e-04   7.64095e-04 DIIS
   @DF-RHF iter   5:    -1.57082254057445   -2.15277e-04   2.15978e-05 DIIS
   @DF-RHF iter   6:    -1.57082257706553   -3.64911e-08   4.28191e-06 DIIS
   @DF-RHF iter   7:    -1.57082258362824   -6.56271e-09   3.00832e-07 DIIS
   @DF-RHF iter   8:    -1.57082258366933   -4.10840e-11   1.21264e-08 DIIS
   @DF-RHF iter   9:    -1.57082258366949   -1.68976e-13   1.56323e-09 DIIS

  ==> Post-Iterations <==

    Orbital Energies [Eh]
    ---------------------

    Doubly Occupied:                                                      

       1A     -0.296967     2A     -0.288092  

    Virtual:                                                              

       3A     -0.151514     4A     -0.141968     5A      0.583220  
       6A      0.608413     7A      0.644424     8A      0.679049  
       9A      1.463298    10A      1.463492    11A      1.463492  
      12A      1.463523    13A      1.463523    14A      1.463762  
      15A      1.464571    16A      1.464571    17A      1.464623  
      18A      1.464623    19A      1.465789    20A      1.465958  

    Final Occupation by Irrep:
              A 
    DOCC [     2 ]

  Energy converged.

  @DF-RHF Final Energy:    -1.57082258366949

   => Energetics <=

    Nuclear Repulsion Energy =              0.5879746762111112
    One-Electron Energy =                  -3.1474782399575538
    Two-Electron Energy =                   0.9886809800769478
    PCM Polarization Energy =               0.0000000000000000
    Total Energy =                         -1.5708225836694949

    Alert: EFP and PCM quantities not currently incorporated into SCF psivars.

Properties will be evaluated at   0.000000,   0.000000,   0.000000 [a0]

Properties computed using the SCF density matrix

  Nuclear Dipole Moment: [e a0]
     X:     0.0000      Y:     0.0000      Z:     0.0000

  Electronic Dipole Moment: [e a0]
     X:    -0.0000      Y:     0.0000      Z:     0.0000

  Dipole Moment: [e a0]
     X:    -0.0000      Y:     0.0000      Z:     0.0000     Total:     0.0000

  Dipole Moment: [D]
     X:    -0.0000      Y:     0.0000      Z:     0.0000     Total:     0.0000


*** tstop() called on ed4 at Wed Nov 14 10:44:48 2018
Module time:
	user time   =       2.97 seconds =       0.05 minutes
	system time =       0.13 seconds =       0.00 minutes
	total time  =          1 seconds =       0.02 minutes
Total time:
	user time   =       2.97 seconds =       0.05 minutes
	system time =       0.13 seconds =       0.00 minutes
	total time  =          1 seconds =       0.02 minutes

Reading options from the V2RDM_DOCI block
Calling plugin v2rdm_doci.so.



*** tstart() called on ed4
*** at Wed Nov 14 10:44:48 2018

  ==> Boys Localizer <==

    Convergence =   1.000E-08
    Maxiter     =          50

    Iteration                   Metric       Residual
    @Boys    0   2.5307847392730653E-18              -
    @Boys    1   1.0759829762154951E+02   4.251578E+19
    @Boys    2   1.0759829762154951E+02   0.000000E+00

    Boys Localizer converged.

  ==> Boys Localizer <==

    Convergence =   1.000E-08
    Maxiter     =          50

    Iteration                   Metric       Residual
    @Boys    0   4.6541572796310681E-12              -
    @Boys    1   8.4763776145976476E+02   1.821249E+14
    @Boys    2   1.1204771730397495E+03   3.218821E-01
    @Boys    3   1.1908283680948687E+03   6.278682E-02
    @Boys    4   1.1963587853473400E+03   4.644177E-03
    @Boys    5   1.1965803633849648E+03   1.852104E-04
    @Boys    6   1.1965890116351043E+03   7.227471E-06
    @Boys    7   1.1965893430434508E+03   2.769609E-07
    @Boys    8   1.1965893935561337E+03   4.221388E-08
    @Boys    9   1.1965894017868138E+03   6.878450E-09

    Boys Localizer converged.

  ## MO coefficients (C) (Symmetry 0) ##
  Irrep: 1 Size: 20 x 20

                 1                   2                   3                   4                   5

    1     0.30245941372289     0.01425200631317     0.28158829033736    -0.00092662991742     0.00428691565442
    2     0.45710520265786     0.02125875045195     0.47728974548911    -0.00139763084964     0.00415669912987
    3     0.00327422385229    -0.00010323170616     0.13302858952805    -0.00006972101145     0.00028760103297
    4     0.00000000000000     0.00000000000000    -0.00001522524712     0.00000000256115    -0.00000000355783
    5    -0.00000000000000     0.00000000000000     0.00001272407761     0.00000000011138     0.00000002430322
    6     0.30234828489844    -0.00857210871513    -0.28137330970155    -0.00099213787245    -0.00928754008868
    7     0.45773559838267    -0.02008031166500    -0.47729409110223    -0.00085709393185     0.03142930657031
    8    -0.00321658977266    -0.00110969607668     0.13514048424429    -0.00002416136712     0.00382522690850
    9     0.00000000000000    -0.00000000000000     0.00002962998577    -0.00000086708472    -0.00000013040869
   10     0.00000000000000     0.00000000000000     0.00000791748379    -0.00000040753591     0.00000004832787
   11     0.00857210871401    -0.30234828490812     0.00881788374080     0.02266184860079     0.86396915769501
   12     0.02008031166319    -0.45773559839216     0.03195669312167     0.00867203266021    -0.86933911021980
   13    -0.00110969607667    -0.00321658977258    -0.00256607971443     0.00155680392499     0.72457105569277
   14    -0.00000000000000    -0.00000000000000    -0.00000000836260    -0.00000026466378     0.00230704688940
   15    -0.00000000000000    -0.00000000000000     0.00000027899959    -0.00000008774773     0.00793048627374
   16    -0.01425200631308    -0.30245941371307     0.01399946865676    -0.57383758111235     0.01296603691867
   17    -0.02125875045214    -0.45710520264833     0.01960582287569     0.48723762531274     0.07048823980459
   18    -0.00010323170614     0.00327422385245    -0.00115118229619    -0.38518977284681    -0.00981552926409
   19     0.00000000000000    -0.00000000000000    -0.00000001194084    -0.74110048037121     0.00000039473070
   20     0.00000000000000     0.00000000000000     0.00000003390348    -0.34267941971323     0.00000202262992

                 6                   7                   8                   9                  10

    1     0.57420600337902    -0.00159428656183     0.02299385124226    -0.57403263589212    -0.02291683140872
    2    -0.48780454494682    -0.00218868590688     0.00962448143311     0.48731991276094    -0.00947644271817
    3    -0.38285084244982    -0.00010509702690     0.00167209087834     0.38620624319654    -0.00165145700021
    4     0.52331061269804     0.00000000397632    -0.00000062110743     0.80390713368327     0.00000174332585
    5    -0.62796039399003    -0.00000000584005    -0.00000172095222     0.13961465345077    -0.00000208956388
    6    -0.02258928456947    -0.00007538307155    -0.56943402459135     0.02269776506490     0.56965758438659
    7    -0.00852152549289    -0.00343372369182     0.48225144634755     0.00872622051278    -0.48268721506463
    8     0.00153423172557    -0.00021638390365    -0.39171273161032    -0.00156404104624     0.38947745426859
    9     0.00000167194431     0.00000001140315     0.28147135971345     0.00000046975743    -0.52088493045195
   10    -0.00000211090610     0.00000000050664     0.76524446242479     0.00000007529194     0.62855466150209
   11     0.00098984989837     0.01275923910615     0.00825042663919    -0.00099343788958    -0.00824774354849
   12     0.00084882535104     0.06980731604480    -0.01595847422823    -0.00086025473821     0.01597758334610
   13    -0.00002370718464     0.00971203346576     0.00207672227906     0.00002432170814    -0.00207893852981
   14     0.00000060215968    -0.00000031065109    -0.00000006067795     0.00000092983639     0.00000014294058
   15    -0.00000074359005     0.00000161822423    -0.00000010626347     0.00000015514914     0.00000008512847
   16     0.00092158128289     0.85077861698638    -0.00005674989888    -0.00092880545418     0.00006431885517
   17     0.00139042330787    -0.85668353739350     0.00121608936840    -0.00140077955985    -0.00120578387644
   18    -0.00006936951721    -0.73343222295545    -0.00009342422253     0.00006987556504     0.00009268096863
   19    -0.00000000364561    -0.00066547233296    -0.00000033841157     0.00000000176807     0.00000062815301
   20     0.00000000316920     0.00285063292042    -0.00000091794414     0.00000000022332    -0.00000075411816

                11                  12                  13                  14                  15

    1     0.00006405197723    -0.02278851147941     0.00003334531571     0.00092932612891    -0.00092165558183
    2    -0.00120189969530    -0.00915011156767    -0.00124480337621     0.00140143097528    -0.00139069964677
    3    -0.00009237462439    -0.00160540900894    -0.00009545852889     0.00006990654458    -0.00006938941210
    4    -0.00000084614495    -0.00000039543420     0.00000006528734    -0.00000000343520    -0.00000000101810
    5     0.00000041583404    -0.00000000419418    -0.00000099257625     0.00000000386176    -0.00000000465243
    6    -0.00822085504895     0.57142209945119    -0.00823821700612     0.00099297280049    -0.00099121736674
    7     0.01592479403414    -0.48475889659413     0.01586066489746     0.00086201213342    -0.00084730773233
    8     0.00207193766282     0.38490318533940     0.00206545465025     0.00002446911954    -0.00002359878148
    9     0.00000008089117     0.80587616709749    -0.00000004359397    -0.00000079440324     0.00000008881933
   10    -0.00000010836017     0.13898185894552    -0.00000007009367     0.00000056749502     0.00000097441526
   11     0.56780980731178    -0.00825918605939     0.56734054730306    -0.02269388015323     0.02261087328346
   12    -0.48110867936293     0.01605693081972    -0.47972653733602    -0.00876644302436     0.00847887760096
   13    -0.38809366076993    -0.00208810160599    -0.39767591354873    -0.00156956984444     0.00152704230731
   14     0.73257227911872    -0.00000010699695    -0.05464074938058    -0.00000027227959    -0.00000011524072
   15    -0.36331169921226     0.00000007966078     0.81150823292280     0.00000060594411     0.00000303239118
   16    -0.02284782045255     0.00008244550776    -0.02317011585675     0.57318848018336    -0.57570597374806
   17    -0.00945455779939    -0.00118383643279    -0.01005313452857    -0.48651748985051     0.48918504502153
   18     0.00164764909000     0.00009112386133     0.00173289851839     0.38645154004959    -0.38284781358579
   19    -0.00000031098947    -0.00000093915596     0.00000011792611    -0.66738696069509     0.07324124394334
   20     0.00000009222112    -0.00000016208390    -0.00000331346285     0.46980623135374     0.81353844038592

                16                  17                  18                  19                  20

    1    -0.01399941923240    -0.85080491825946     0.57445641080785     0.00008098167423     0.01309783286894
    2    -0.01960575312579     0.85670573821348    -0.48778190355186    -0.00118340740117     0.07054061535864
    3    -0.00115116614846    -0.73341794911782    -0.38546057826948    -0.00009107167810     0.00982328487649
    4     0.00000002465910     0.00161070940370     0.28262471305356     0.00000078146262    -0.00000079654362
    5    -0.00000002682990    -0.00106216145071     0.76561894161787     0.00000052648209     0.00000017663534
    6    -0.00881799885929    -0.01275885040763    -0.02267972634278    -0.00824422322610     0.86064162870823
    7    -0.03195643951413    -0.06980617242850    -0.00866957347842     0.01602354149153    -0.86651498917987
    8    -0.00256608350776     0.00971229832045     0.00155516783665     0.00208379685013    -0.72688225483521
    9     0.00000015637526     0.00000089123828     0.00000050282248    -0.00000016772973    -0.00404540602602
   10     0.00000003065645     0.00000002026533     0.00000168813836    -0.00000006915692    -0.00199826043573
   11     0.28137507843059     0.00007534390216     0.00099300701015     0.57032020149545    -0.00923928166179
   12     0.47729091423568     0.00343365887651     0.00085732833833    -0.48377894097403     0.03133568195666
   13     0.13515369688889    -0.00021637663752    -0.00002419600919    -0.38453897505406    -0.00381290787379
   14     0.00000281684046    -0.00000000068523     0.00000032209989    -0.67848870432678     0.00000001154378
   15     0.00005737617548     0.00000001467126     0.00000092564722    -0.45759818749168     0.00000022591849
   16    -0.28158595509594     0.00159423773453     0.00092721927619    -0.02276048142910     0.00428647162116
   17    -0.47729036353527     0.00218861695283     0.00139855148397    -0.00916057683650     0.00416366827721
   18     0.13303046904285    -0.00010509206196    -0.00006977018130     0.00160700348902    -0.00028813898246
   19     0.00000427095840    -0.00000000186196     0.00000000060042     0.00000020478555    -0.00000000565795
   20    -0.00001326812563     0.00000000202451     0.00000000519731     0.00000017889097     0.00000000494039





        *******************************************************
        *                                                     *
        *    v2RDM-DOCI                                       *
        *                                                     *
        *    A variational 2-RDM-driven approach to the       *
        *    doubles only configuration interaction method    *
        *                                                     *
        *******************************************************

  ==> Convergence parameters <==

        r_convergence:                      1.000e-06
        e_convergence:                      1.000e-05
        cg_convergence:                     1.000e-09
        maxiter:                              1000000
        cg_maxiter:                             10000

  ==> Active space details <==

        Number of frozen core orbitals:             0
        Number of restricted occupied orbitals:     0
        Number of active occupied orbitals:         2
        Number of active virtual orbitals:         18
        Number of restricted virtual orbitals:      0
        Number of frozen virtual orbitals:          0

        Irrep:              A 
 
        frozen_docc     [   0 ]
        restricted_docc [   0 ]
        active          [  20 ]
        restricted_uocc [   0 ]
        frozen_uocc     [   0 ]

  ==> Orbital optimization parameters <==

        1-step algorithm:                    true
        g_convergence:                  1.000e-04
        e_convergence:                  1.000e-06
        maximum iterations:                   500
        frequency:                            500
        active-active rotations:             true
        exact diagonal Hessian:              true
        number of DIIS vectors:                 0
        print iteration info:               false

  ==> Memory requirements <==

        D2:                          0.01 mb
        Q2:                          0.01 mb
        G2:                          0.02 mb

        Total number of variables:           2570
        Total number of constraints:         2213
        Total memory requirements:       14.95 mb

    ==> Transform three-electron integrals <==


        Time for integral transformation:     0.05 s

    Molecular point group: c1
    Full point group: D_inf_h

    Geometry (in Angstrom), charge = 0, multiplicity = 1:

       Center              X                  Y                   Z               Mass       
    ------------   -----------------  -----------------  -----------------  -----------------
         H            0.000000000000     0.000000000000    -5.850000000000     1.007825032070
         H            0.000000000000     0.000000000000    -1.950000000000     1.007825032070
         H            0.000000000000     0.000000000000     1.950000000000     1.007825032070
         H            0.000000000000     0.000000000000     5.850000000000     1.007825032070

  -AO BASIS SET INFORMATION:
    Name                   = CC-PVDZ
    Blend                  = CC-PVDZ
    Total number of shells = 12
    Number of primitives   = 20
    Number of AO           = 20
    Number of SO           = 20
    Maximum AM             = 1
    Spherical Harmonics    = TRUE

  -Contraction Scheme:
    Atom   Type   All Primitives // Shells:
   ------ ------ --------------------------
       1     H     4s 1p // 2s 1p 
       2     H     4s 1p // 2s 1p 
       3     H     4s 1p // 2s 1p 
       4     H     4s 1p // 2s 1p 

  ==> AO Basis Functions <==

    [ CC-PVDZ ]
    spherical
    ****
    H   1
    S   3 1.00
                        13.01000000           0.01968500
                         1.96200000           0.13797700
                         0.44460000           0.47814800
    S   1 1.00
                         0.12200000           1.00000000
    P   1 1.00
                         0.72700000           1.00000000
    ****
    H   2
    S   3 1.00
                        13.01000000           0.01968500
                         1.96200000           0.13797700
                         0.44460000           0.47814800
    S   1 1.00
                         0.12200000           1.00000000
    P   1 1.00
                         0.72700000           1.00000000
    ****
    H   3
    S   3 1.00
                        13.01000000           0.01968500
                         1.96200000           0.13797700
                         0.44460000           0.47814800
    S   1 1.00
                         0.12200000           1.00000000
    P   1 1.00
                         0.72700000           1.00000000
    ****
    H   4
    S   3 1.00
                        13.01000000           0.01968500
                         1.96200000           0.13797700
                         0.44460000           0.47814800
    S   1 1.00
                         0.12200000           1.00000000
    P   1 1.00
                         0.72700000           1.00000000
    ****


    reference energy:          -1.570822583669
    frozen core energy:         0.000000000000
    initial 2-RDM energy:      -1.993022883752

      oiter iiter        E(p)        E(d)      E gap)      mu     eps(p)     eps(d)
          0    18   11.770164  151.215418  139.445254   1.000   0.408958   0.251664
          1    18   10.774583    0.629938   10.144645   1.000   0.418375   0.018667
          2    16    6.671644    1.607213    5.064431   1.000   0.258141   0.027638
          3    14    1.841583    1.691214    0.150369   1.000   0.063024   0.032258
          4    16    0.252010    2.222481    1.970471   1.000   0.016265   0.022982
          5    16   -0.203394    2.127185    2.330579   1.000   0.024099   0.014656
          6    14   -0.521129    1.860599    2.381728   1.000   0.012946   0.013959
          7    14   -0.917968    1.672099    2.590066   1.000   0.013169   0.012730
          8    15   -1.291667    1.241010    2.532677   1.000   0.024583   0.010854
          9    16   -1.594702    0.571631    2.166333   1.000   0.027555   0.009195
         10    18   -1.863195   -0.184513    1.678682   1.000   0.024483   0.007512
         11    18   -2.096877   -1.072635    1.024242   1.000   0.020242   0.005710
         12    16   -2.323556   -1.936842    0.386714   1.000   0.022725   0.004617
         13    17   -2.453772   -2.577613    0.123841   1.000   0.024992   0.004340
         14    18   -2.470873   -2.973121    0.502248   1.000   0.024229   0.004727
         15    16   -2.399914   -3.148437    0.748523   1.000   0.020762   0.005151
         16    16   -2.257991   -3.150898    0.892907   1.000   0.015202   0.005354
         17    17   -2.061426   -3.026641    0.965214   1.000   0.008314   0.005293
         18    15   -1.891734   -2.813507    0.921774   1.000   0.004622   0.004766
         19    15   -1.713938   -2.561208    0.847269   1.000   0.005835   0.003704
         20    18   -1.565043   -2.251701    0.686658   1.000   0.009165   0.002446
         21    18   -1.476808   -1.909765    0.432956   1.000   0.011208   0.001392
         22    17   -1.462409   -1.583394    0.120985   1.000   0.011268   0.001265
         23    18   -1.515780   -1.324924    0.190857   1.000   0.009433   0.002008
         24    18   -1.612180   -1.230060    0.382120   1.000   0.006446   0.002473
         25    13   -1.728368   -1.238058    0.490310   1.000   0.002941   0.002567
         26    14   -1.844419   -1.254834    0.589585   1.000   0.001042   0.002393
         27    17   -1.941325   -1.319004    0.622322   1.000   0.003502   0.001979
         28    17   -2.005625   -1.439988    0.565637   1.000   0.005268   0.001397
         29    18   -2.029893   -1.637832    0.392061   1.000   0.005929   0.000703
         30    18   -2.017872   -1.839426    0.178446   1.000   0.005574   0.000379
         31    16   -1.979368   -2.009146    0.029777   1.000   0.004461   0.000787
         32    16   -1.926670   -2.125809    0.199139   1.000   0.002925   0.001145
         33    15   -1.871370   -2.181938    0.310568   1.000   0.001301   0.001314
         34    15   -1.822358   -2.180720    0.358362   1.000   0.000460   0.001296
         35    18   -1.785135   -2.132258    0.347123   1.000   0.001500   0.001120
         36    17   -1.762062   -2.050405    0.288344   1.000   0.002261   0.000837
         37    18   -1.753055   -1.950598    0.197543   1.000   0.002602   0.000520
         38    18   -1.756380   -1.848196    0.091816   1.000   0.002549   0.000315
         39    17   -1.769318   -1.757014    0.012304   1.000   0.002175   0.000414
         40    17   -1.788676   -1.687926    0.100750   1.000   0.001582   0.000598
         41    15   -1.811160   -1.647709    0.163451   1.000   0.000885   0.000715
         42    15   -1.833667   -1.638434    0.195233   1.000   0.000274   0.000738
         43    18   -1.853529   -1.657501    0.196029   1.000   0.000560   0.000672
         44    17   -1.868726   -1.698525    0.170201   1.000   0.001019   0.000544
         45    18   -1.878028   -1.752703    0.125326   1.000   0.001304   0.000396
         46    18   -1.881063   -1.810459    0.070603   1.000   0.001389   0.000294
         47    17   -1.878276   -1.863021    0.015255   1.000   0.001289   0.000301
         48    17   -1.870799   -1.903632    0.032833   1.000   0.001042   0.000372
         49    18   -1.860232   -1.928267    0.068035   1.000   0.000705   0.000433
         50    15   -1.848393   -1.935810    0.087418   1.000   0.000362   0.000454
         51    14   -1.837048   -1.927748    0.090700   1.000   0.000243   0.000432
         52    18   -1.827687   -1.907567    0.079880   1.000   0.000449   0.000380
         53    18   -1.821350   -1.879895    0.058545   1.000   0.000632   0.000319
         54    17   -1.818537   -1.849710    0.031173   1.000   0.000717   0.000274
         55    17   -1.819202   -1.821574    0.002372   1.000   0.000696   0.000265
         56    18   -1.822826   -1.799072    0.023754   1.000   0.000589   0.000285
         57    14   -1.828545   -1.784469    0.044076   1.000   0.000425   0.000308
         58    15   -1.835315   -1.778627    0.056687   1.000   0.000259   0.000319
         59    15   -1.842079   -1.781059    0.061020   1.000   0.000202   0.000314
         60    14   -1.847921   -1.790232    0.057689   1.000   0.000294   0.000295
         61    15   -1.852175   -1.803921    0.048254   1.000   0.000397   0.000271
         62    15   -1.854487   -1.819609    0.034878   1.000   0.000455   0.000253
         63    15   -1.854823   -1.834877    0.019946   1.000   0.000458   0.000246
         64    15   -1.853433   -1.847712    0.005721   1.000   0.000412   0.000249
         65    15   -1.850775   -1.856727    0.005953   1.000   0.000334   0.000255
         66    15   -1.847421   -1.861254    0.013833   1.000   0.000250   0.000259
         67    14   -1.843961   -1.861331    0.017369   1.000   0.000194   0.000257
         68    15   -1.840917   -1.857594    0.016678   1.000   0.000193   0.000251
         69    15   -1.838674   -1.851117    0.012443   1.000   0.000224   0.000242
         70    14   -1.837450   -1.843184    0.005733   1.000   0.000249   0.000234
         71    15   -1.837290   -1.835104    0.002186   1.000   0.000255   0.000229
         72    15   -1.838080   -1.828014    0.010066   1.000   0.000240   0.000228
         73    14   -1.839592   -1.822759    0.016833   1.000   0.000213   0.000229
         74    15   -1.841530   -1.819813    0.021717   1.000   0.000188   0.000229
         75    15   -1.843582   -1.819265    0.024318   1.000   0.000179   0.000228
         76    14   -1.845467   -1.820864    0.024602   1.000   0.000187   0.000225
         77    15   -1.846965   -1.824100    0.022865   1.000   0.000204   0.000221
         78    15   -1.847943   -1.828310    0.019633   1.000   0.000218   0.000217
         79    14   -1.848360   -1.832793    0.015566   1.000   0.000223   0.000214
         80    15   -1.848255   -1.836907    0.011348   1.000   0.000218   0.000212
         81    14   -1.847733   -1.840153    0.007581   1.000   0.000206   0.000211
         82    14   -1.846944   -1.842220    0.004724   1.000   0.000191   0.000210
         83    15   -1.846048   -1.843005    0.003043   1.000   0.000180   0.000209
         84    12   -1.845199   -1.842600    0.002599   1.000   0.000173   0.000207
         85    15   -1.844522   -1.841231    0.003291   1.000   0.000171   0.000204
         86    15   -1.844098   -1.839255    0.004844   1.000   0.000172   0.000202
         87    14   -1.843966   -1.837032    0.006933   1.000   0.000173   0.000200
         88    15   -1.844114   -1.834921    0.009192   1.000   0.000172   0.000198
         89    15   -1.844496   -1.833210    0.011286   1.000   0.000170   0.000196
         90    14   -1.845040   -1.832091    0.012949   1.000   0.000168   0.000195
         91    12   -1.845663   -1.831634    0.014029   1.000   0.000168   0.000193
         92    15   -1.846280   -1.831877    0.014403   1.000   0.000169   0.000191
         93    15   -1.846821   -1.832617    0.014204   1.000   0.000171   0.000190
         94    14   -1.847236   -1.833751    0.013485   1.000   0.000174   0.000188
         95    15   -1.847498   -1.835066    0.012432   1.000   0.000175   0.000186
         96    14   -1.847605   -1.836369    0.011236   1.000   0.000174   0.000184
         97    15   -1.847577   -1.837496    0.010081   1.000   0.000173   0.000183
         98    14   -1.847449   -1.838333    0.009117   1.000   0.000170   0.000181
         99    15   -1.847265   -1.838817    0.008448   1.000   0.000168   0.000179
        100    15   -1.847068   -1.838948    0.008121   1.000   0.000166   0.000178
        101    12   -1.846900   -1.838796    0.008104   1.000   0.000164   0.000176
        102    12   -1.846790   -1.838331    0.008459   1.000   0.000163   0.000175
        103    14   -1.846756   -1.837849    0.008907   1.000   0.000162   0.000173
        104    15   -1.846802   -1.837295    0.009507   1.000   0.000162   0.000171
        105    12   -1.846921   -1.836794    0.010126   1.000   0.000161   0.000170
        106    12   -1.847096   -1.836506    0.010590   1.000   0.000161   0.000168
        107    15   -1.847306   -1.836340    0.010965   1.000   0.000161   0.000167
        108    15   -1.847525   -1.836364    0.011162   1.000   0.000161   0.000165
        109    14   -1.847733   -1.836567    0.011166   1.000   0.000162   0.000164
        110    14   -1.847912   -1.836903    0.011010   1.000   0.000162   0.000162
        111    15   -1.848051   -1.837318    0.010733   1.000   0.000162   0.000161
        112    15   -1.848145   -1.837759    0.010386   1.000   0.000162   0.000159
        113    14   -1.848198   -1.838175    0.010023   1.000   0.000161   0.000158
        114    15   -1.848215   -1.838524    0.009691   1.000   0.000160   0.000156
        115    14   -1.848210   -1.838784    0.009427   1.000   0.000160   0.000155
        116    15   -1.848194   -1.838941    0.009254   1.000   0.000159   0.000153
        117    15   -1.848180   -1.839005    0.009175   1.000   0.000158   0.000152
        118    14   -1.848177   -1.838991    0.009186   1.000   0.000158   0.000151
        119    14   -1.848192   -1.838928    0.009265   1.000   0.000157   0.000149
        120    15   -1.848229   -1.838841    0.009388   1.000   0.000156   0.000148
        121    15   -1.848287   -1.838762    0.009525   1.000   0.000156   0.000146
        122    14   -1.848363   -1.838713    0.009651   1.000   0.000156   0.000145
        123    14   -1.848451   -1.838708    0.009744   1.000   0.000156   0.000144
        124    15   -1.848545   -1.838755    0.009791   1.000   0.000155   0.000142
        125    15   -1.848639   -1.838853    0.009786   1.000   0.000155   0.000141
        126    14   -1.848725   -1.838994    0.009731   1.000   0.000155   0.000140
        127    15   -1.848802   -1.839165    0.009636   1.000   0.000155   0.000138
        128    15   -1.848866   -1.839352    0.009514   1.000   0.000155   0.000137
        129    14   -1.848916   -1.839538    0.009378   1.000   0.000154   0.000136
        130    15   -1.848956   -1.839712    0.009244   1.000   0.000154   0.000134
        131    15   -1.848986   -1.839862    0.009124   1.000   0.000154   0.000133
        132    14   -1.849011   -1.839985    0.009026   1.000   0.000153   0.000132
        133    15   -1.849034   -1.840080    0.008954   1.000   0.000153   0.000131
        134    15   -1.849058   -1.840150    0.008908   1.000   0.000152   0.000129
        135    14   -1.849086   -1.840202    0.008884   1.000   0.000152   0.000128
        136    15   -1.849119   -1.840243    0.008877   1.000   0.000151   0.000127
        137    15   -1.849158   -1.840281    0.008877   1.000   0.000151   0.000126
        138    14   -1.849202   -1.840324    0.008879   1.000   0.000151   0.000125
        139    14   -1.849250   -1.840377    0.008873   1.000   0.000150   0.000123
        140    15   -1.849300   -1.840442    0.008858   1.000   0.000150   0.000122
        141    15   -1.849350   -1.840523    0.008827   1.000   0.000150   0.000121
        142    14   -1.849399   -1.840617    0.008782   1.000   0.000150   0.000120
        143    14   -1.849445   -1.840721    0.008724   1.000   0.000149   0.000119
        144    15   -1.849487   -1.840831    0.008657   1.000   0.000149   0.000118
        145    14   -1.849526   -1.840943    0.008583   1.000   0.000149   0.000116
        146    15   -1.849560   -1.841052    0.008508   1.000   0.000148   0.000115
        147    15   -1.849591   -1.841157    0.008434   1.000   0.000148   0.000114
        148    14   -1.849620   -1.841254    0.008366   1.000   0.000148   0.000113
        149    15   -1.849647   -1.841342    0.008304   1.000   0.000147   0.000112
        150    14   -1.849673   -1.841424    0.008250   1.000   0.000147   0.000111
        151    15   -1.849700   -1.841497    0.008203   1.000   0.000147   0.000110
        152    15   -1.849728   -1.841567    0.008161   1.000   0.000146   0.000109
        153    14   -1.849757   -1.841634    0.008122   1.000   0.000146   0.000108
        154    14   -1.849787   -1.841702    0.008085   1.000   0.000146   0.000107
        155    15   -1.849818   -1.841770    0.008047   1.000   0.000145   0.000106
        156    15   -1.849849   -1.841842    0.008007   1.000   0.000145   0.000104
        157    14   -1.849880   -1.841918    0.007963   1.000   0.000145   0.000103
        158    14   -1.849911   -1.841997    0.007914   1.000   0.000145   0.000102
        159    15   -1.849941   -1.842078    0.007863   1.000   0.000144   0.000101
        160    15   -1.849970   -1.842163    0.007807   1.000   0.000144   0.000100
        161    14   -1.849997   -1.842247    0.007750   1.000   0.000144   0.000099
        162    15   -1.850023   -1.842332    0.007692   1.000   0.000143   0.000098
        163    14   -1.850048   -1.842415    0.007633   1.000   0.000143   0.000097
        164    15   -1.850071   -1.842495    0.007576   1.000   0.000143   0.000096
        165    15   -1.850094   -1.842573    0.007520   1.000   0.000143   0.000095
        166    14   -1.850116   -1.842649    0.007467   1.000   0.000142   0.000095
        167    15   -1.850137   -1.842722    0.007415   1.000   0.000142   0.000094
        168    15   -1.850159   -1.842793    0.007366   1.000   0.000142   0.000093
        169    14   -1.850180   -1.842863    0.007317   1.000   0.000141   0.000092
        170    15   -1.850202   -1.842932    0.007270   1.000   0.000141   0.000091
        171    15   -1.850223   -1.843001    0.007223   1.000   0.000141   0.000090
        172    14   -1.850245   -1.843070    0.007175   1.000   0.000140   0.000089
        173    15   -1.850266   -1.843140    0.007127   1.000   0.000140   0.000088
        174    14   -1.850287   -1.843211    0.007077   1.000   0.000140   0.000087
        175    15   -1.850308   -1.843281    0.007027   1.000   0.000140   0.000086
        176    15   -1.850328   -1.843352    0.006975   1.000   0.000139   0.000085
        177    14   -1.850347   -1.843424    0.006923   1.000   0.000139   0.000085
        178    15   -1.850366   -1.843495    0.006871   1.000   0.000139   0.000084
        179    14   -1.850384   -1.843566    0.006819   1.000   0.000138   0.000083
        180    15   -1.850402   -1.843635    0.006767   1.000   0.000138   0.000082
        181    15   -1.850419   -1.843704    0.006715   1.000   0.000138   0.000081
        182    14   -1.850435   -1.843771    0.006664   1.000   0.000137   0.000080
        183    15   -1.850451   -1.843837    0.006614   1.000   0.000137   0.000079
        184    15   -1.850467   -1.843903    0.006565   1.000   0.000137   0.000079
        185    14   -1.850483   -1.843967    0.006516   1.000   0.000137   0.000078
        186    14   -1.850499   -1.844032    0.006467   1.000   0.000136   0.000077
        187    15   -1.850514   -1.844094    0.006420   1.000   0.000136   0.000076
        188    15   -1.850529   -1.844158    0.006371   1.000   0.000136   0.000075
        189    14   -1.850544   -1.844221    0.006323   1.000   0.000135   0.000075
        190    15   -1.850559   -1.844283    0.006275   1.000   0.000135   0.000074
        191    14   -1.850573   -1.844346    0.006227   1.000   0.000135   0.000073
        192    15   -1.850587   -1.844408    0.006179   1.000   0.000135   0.000072
        193    15   -1.850601   -1.844470    0.006130   1.000   0.000134   0.000072
        194    14   -1.850614   -1.844532    0.006082   1.000   0.000134   0.000071
        195    15   -1.850627   -1.844593    0.006034   1.000   0.000134   0.000070
        196    14   -1.850640   -1.844654    0.005985   1.000   0.000133   0.000069
        197    15   -1.850652   -1.844714    0.005938   1.000   0.000133   0.000069
        198    15   -1.850664   -1.844773    0.005891   1.000   0.000133   0.000068
        199    14   -1.850676   -1.844832    0.005843   1.000   0.000133   0.000067
        200    15   -1.850687   -1.844890    0.005797   1.000   0.000132   0.000067
        201    14   -1.850698   -1.844948    0.005750   1.000   0.000132   0.000066
        202    15   -1.850709   -1.845005    0.005705   1.000   0.000132   0.000065
        203    15   -1.850720   -1.845061    0.005659   1.000   0.000131   0.000064
        204    14   -1.850731   -1.845117    0.005614   1.000   0.000131   0.000064
        205    12   -1.850716   -1.845506    0.005210   1.000   0.000131   0.000063
        206    15   -1.850684   -1.845911    0.004774   1.000   0.000130   0.000063
        207    15   -1.850650   -1.846222    0.004428   1.000   0.000129   0.000062
        208    14   -1.850626   -1.846254    0.004372   1.000   0.000129   0.000061
        209    15   -1.850605   -1.846146    0.004459   1.000   0.000128   0.000060
        210    15   -1.850583   -1.845964    0.004619   1.000   0.000128   0.000060
        211    14   -1.850560   -1.845765    0.004795   1.000   0.000128   0.000059
        212    15   -1.850540   -1.845585    0.004954   1.000   0.000127   0.000059
        213    15   -1.850528   -1.845445    0.005084   1.000   0.000127   0.000058
        214    14   -1.850532   -1.845353    0.005179   1.000   0.000127   0.000057
        215    14   -1.850554   -1.845316    0.005238   1.000   0.000127   0.000057
        216    15   -1.850592   -1.845333    0.005259   1.000   0.000126   0.000056
        217    15   -1.850642   -1.845402    0.005241   1.000   0.000126   0.000056
        218    14   -1.850696   -1.845513    0.005183   1.000   0.000126   0.000055
        219    15   -1.850746   -1.845656    0.005091   1.000   0.000126   0.000054
        220    15   -1.850786   -1.845815    0.004971   1.000   0.000126   0.000054
        221    14   -1.850809   -1.845976    0.004833   1.000   0.000126   0.000053
        222    15   -1.850816   -1.846126    0.004690   1.000   0.000126   0.000053
        223    14   -1.850809   -1.846254    0.004555   1.000   0.000125   0.000052
        224    15   -1.850791   -1.846353    0.004438   1.000   0.000125   0.000051
        225    15   -1.850768   -1.846420    0.004348   1.000   0.000124   0.000051
        226    14   -1.850745   -1.846458    0.004287   1.000   0.000124   0.000050
        227    15   -1.850727   -1.846470    0.004257   1.000   0.000124   0.000050
        228    14   -1.850715   -1.846463    0.004252   1.000   0.000123   0.000049
        229    15   -1.850713   -1.846447    0.004266   1.000   0.000123   0.000049
        230    15   -1.850718   -1.846429    0.004290   1.000   0.000123   0.000048
        231    14   -1.850731   -1.846417    0.004314   1.000   0.000123   0.000048
        232    15   -1.850748   -1.846417    0.004331   1.000   0.000122   0.000047
        233    15   -1.850768   -1.846433    0.004335   1.000   0.000122   0.000047
        234    14   -1.850788   -1.846466    0.004323   1.000   0.000122   0.000046
        235    15   -1.850807   -1.846516    0.004292   1.000   0.000122   0.000046
        236    15   -1.850823   -1.846579    0.004244   1.000   0.000122   0.000045
        237    14   -1.850835   -1.846651    0.004184   1.000   0.000121   0.000045
        238    14   -1.850843   -1.846729    0.004114   1.000   0.000121   0.000044
        239    15   -1.850847   -1.846805    0.004042   1.000   0.000121   0.000044
        240    15   -1.850848   -1.846877    0.003971   1.000   0.000121   0.000043
        241    14   -1.850847   -1.846941    0.003906   1.000   0.000120   0.000043
        242    15   -1.850844   -1.846995    0.003849   1.000   0.000120   0.000042
        243    15   -1.850841   -1.847038    0.003803   1.000   0.000120   0.000042
        244    15   -1.850839   -1.847071    0.003767   1.000   0.000119   0.000041
        245    15   -1.850838   -1.847097    0.003741   1.000   0.000119   0.000041
        246    15   -1.850838   -1.847117    0.003722   1.000   0.000119   0.000040
        247    14   -1.850841   -1.847134    0.003707   1.000   0.000119   0.000040
        248    15   -1.850845   -1.847152    0.003693   1.000   0.000118   0.000039
        249    15   -1.850851   -1.847173    0.003678   1.000   0.000118   0.000039
        250    14   -1.850858   -1.847198    0.003660   1.000   0.000118   0.000039
        251    15   -1.850865   -1.847228    0.003637   1.000   0.000118   0.000038
        252    15   -1.850873   -1.847264    0.003609   1.000   0.000118   0.000038
        253    14   -1.850880   -1.847304    0.003576   1.000   0.000117   0.000037
        254    15   -1.850886   -1.847348    0.003539   1.000   0.000117   0.000037
        255    15   -1.850891   -1.847393    0.003498   1.000   0.000117   0.000036
        256    14   -1.850895   -1.847440    0.003455   1.000   0.000117   0.000036
        257    15   -1.850898   -1.847485    0.003413   1.000   0.000116   0.000036
        258    15   -1.850900   -1.847528    0.003372   1.000   0.000116   0.000035
        259    14   -1.850901   -1.847567    0.003333   1.000   0.000116   0.000035
        260    15   -1.850901   -1.847604    0.003298   1.000   0.000116   0.000034
        261    15   -1.850901   -1.847636    0.003265   1.000   0.000115   0.000034
        262    14   -1.850902   -1.847666    0.003236   1.000   0.000115   0.000034
        263    15   -1.850903   -1.847694    0.003210   1.000   0.000115   0.000033
        264    15   -1.850905   -1.847720    0.003185   1.000   0.000115   0.000033
        265    14   -1.850907   -1.847745    0.003162   1.000   0.000114   0.000032
        266    15   -1.850910   -1.847771    0.003139   1.000   0.000114   0.000032
        267    16   -1.850913   -1.847797    0.003116   1.000   0.000114   0.000032
        268    14   -1.850916   -1.847825    0.003091   1.000   0.000114   0.000031
        269    14   -1.850919   -1.847854    0.003065   1.000   0.000113   0.000031
        270    15   -1.850923   -1.847885    0.003038   1.000   0.000113   0.000031
        271    15   -1.850926   -1.847916    0.003010   1.000   0.000113   0.000030
        272    14   -1.850929   -1.847949    0.002980   1.000   0.000113   0.000030
        273    14   -1.850931   -1.847981    0.002950   1.000   0.000113   0.000030
        274    15   -1.850933   -1.848014    0.002919   1.000   0.000112   0.000029
        275    15   -1.850935   -1.848045    0.002889   1.000   0.000112   0.000029
        276    14   -1.850936   -1.848076    0.002860   1.000   0.000112   0.000029
        277    15   -1.850937   -1.848105    0.002831   1.000   0.000112   0.000028
        278    15   -1.850938   -1.848134    0.002804   1.000   0.000111   0.000028
        279    14   -1.850938   -1.848161    0.002778   1.000   0.000111   0.000028
        280    15   -1.850939   -1.848186    0.002753   1.000   0.000111   0.000027
        281    15   -1.850940   -1.848211    0.002729   1.000   0.000111   0.000027
        282    14   -1.850942   -1.848236    0.002706   1.000   0.000110   0.000027
        283    15   -1.850943   -1.848260    0.002683   1.000   0.000110   0.000026
        284    15   -1.850944   -1.848284    0.002660   1.000   0.000110   0.000026
        285    14   -1.850946   -1.848309    0.002637   1.000   0.000110   0.000026
        286    15   -1.850948   -1.848334    0.002614   1.000   0.000110   0.000025
        287    15   -1.850949   -1.848358    0.002591   1.000   0.000109   0.000025
        288    14   -1.850951   -1.848384    0.002567   1.000   0.000109   0.000025
        289    15   -1.850952   -1.848409    0.002543   1.000   0.000109   0.000025
        290    15   -1.850953   -1.848434    0.002519   1.000   0.000109   0.000024
        291    14   -1.850954   -1.848459    0.002495   1.000   0.000108   0.000024
        292    15   -1.850955   -1.848484    0.002471   1.000   0.000108   0.000024
        293    15   -1.850956   -1.848508    0.002448   1.000   0.000108   0.000023
        294    14   -1.850957   -1.848532    0.002425   1.000   0.000108   0.000023
        295    15   -1.850957   -1.848555    0.002402   1.000   0.000108   0.000023
        296    16   -1.850958   -1.848578    0.002380   1.000   0.000107   0.000023
        297    14   -1.850958   -1.848600    0.002358   1.000   0.000107   0.000022
        298    14   -1.850959   -1.848622    0.002337   1.000   0.000107   0.000022
        299    15   -1.850959   -1.848643    0.002316   1.000   0.000107   0.000022
        300    15   -1.850960   -1.848664    0.002296   1.000   0.000107   0.000021
        301    14   -1.850961   -1.848685    0.002276   1.000   0.000106   0.000021
        302    16   -1.850961   -1.848706    0.002255   1.000   0.000106   0.000021
        303    15   -1.850962   -1.848726    0.002235   1.000   0.000106   0.000021
        304    14   -1.850962   -1.848747    0.002216   1.000   0.000106   0.000020
        305    16   -1.850963   -1.848767    0.002196   1.000   0.000105   0.000020
        306    15   -1.850964   -1.848788    0.002176   1.000   0.000105   0.000020
        307    14   -1.850964   -1.848808    0.002156   1.000   0.000105   0.000020
        308    15   -1.850964   -1.848828    0.002136   1.000   0.000105   0.000019
        309    15   -1.850965   -1.848848    0.002117   1.000   0.000105   0.000019
        310    14   -1.850965   -1.848867    0.002098   1.000   0.000104   0.000019
        311    15   -1.850965   -1.848887    0.002079   1.000   0.000104   0.000019
        312    15   -1.850965   -1.848906    0.002060   1.000   0.000104   0.000019
        313    14   -1.850966   -1.848924    0.002041   1.000   0.000104   0.000018
        314    16   -1.850966   -1.848943    0.002023   1.000   0.000104   0.000018
        315    16   -1.850966   -1.848961    0.002005   1.000   0.000103   0.000018
        316    14   -1.850966   -1.848979    0.001987   1.000   0.000103   0.000018
        317    15   -1.850966   -1.848996    0.001970   1.000   0.000103   0.000017
        318    15   -1.850966   -1.849013    0.001953   1.000   0.000103   0.000017
        319    14   -1.850966   -1.849031    0.001936   1.000   0.000103   0.000017
        320    16   -1.850966   -1.849048    0.001919   1.000   0.000102   0.000017
        321    15   -1.850966   -1.849064    0.001902   1.000   0.000102   0.000017
        322    14   -1.850966   -1.849081    0.001885   1.000   0.000102   0.000016
        323    16   -1.850966   -1.849098    0.001869   1.000   0.000102   0.000016
        324    16   -1.850966   -1.849114    0.001852   1.000   0.000102   0.000016
        325    14   -1.850966   -1.849130    0.001836   1.000   0.000101   0.000016
        326    15   -1.850966   -1.849146    0.001820   1.000   0.000101   0.000016
        327    15   -1.850966   -1.849162    0.001804   1.000   0.000101   0.000015
        328    14   -1.850966   -1.849177    0.001788   1.000   0.000101   0.000015
        329    16   -1.850966   -1.849193    0.001773   1.000   0.000101   0.000015
        330    15   -1.850965   -1.849208    0.001757   1.000   0.000100   0.000015
        331    14   -1.850965   -1.849223    0.001742   1.000   0.000100   0.000015
        332    15   -1.850965   -1.849238    0.001727   1.000   0.000100   0.000014
        333    16   -1.850965   -1.849252    0.001712   1.000   0.000100   0.000014
        334    14   -1.850964   -1.849266    0.001698   1.000   0.000100   0.000014
        335    14   -1.850964   -1.849281    0.001683   1.000   0.000099   0.000014
        336    15   -1.850964   -1.849294    0.001669   1.000   0.000099   0.000014
        337    15   -1.850963   -1.849308    0.001655   1.000   0.000099   0.000014
        338    14   -1.850963   -1.849322    0.001641   1.000   0.000099   0.000013
        339    17   -1.850963   -1.849335    0.001627   1.000   0.000099   0.000013
        340    15   -1.850962   -1.849349    0.001614   1.000   0.000098   0.000013
        341    14   -1.850962   -1.849362    0.001600   1.000   0.000098   0.000013
        342    15   -1.850962   -1.849375    0.001587   1.000   0.000098   0.000013
        343    16   -1.850961   -1.849388    0.001574   1.000   0.000098   0.000013
        344    14   -1.850961   -1.849400    0.001560   1.000   0.000098   0.000012
        345    15   -1.850960   -1.849413    0.001548   1.000   0.000097   0.000012
        346    17   -1.850960   -1.849425    0.001535   1.000   0.000097   0.000012
        347    14   -1.850959   -1.849437    0.001522   1.000   0.000097   0.000012
        348    15   -1.850959   -1.849449    0.001510   1.000   0.000097   0.000012
        349    14   -1.850958   -1.849461    0.001497   1.000   0.000097   0.000012
        350    16   -1.850958   -1.849473    0.001485   1.000   0.000097   0.000012
        351    16   -1.850957   -1.849484    0.001473   1.000   0.000096   0.000011
        352    14   -1.850957   -1.849496    0.001461   1.000   0.000096   0.000011
        353    16   -1.850956   -1.849507    0.001450   1.000   0.000096   0.000011
        354    16   -1.850956   -1.849518    0.001438   1.000   0.000096   0.000011
        355    14   -1.850955   -1.849529    0.001426   1.000   0.000096   0.000011
        356    15   -1.850955   -1.849539    0.001415   1.000   0.000095   0.000011
        357    15   -1.850954   -1.849550    0.001404   1.000   0.000095   0.000011
        358    14   -1.850953   -1.849561    0.001393   1.000   0.000095   0.000010
        359    15   -1.850953   -1.849571    0.001382   1.000   0.000095   0.000010
        360    14   -1.850952   -1.849581    0.001371   1.000   0.000095   0.000010
        361    17   -1.850951   -1.849591    0.001360   1.000   0.000095   0.000010
        362    16   -1.850951   -1.849601    0.001350   1.000   0.000094   0.000010
        363    14   -1.850950   -1.849611    0.001339   1.000   0.000094   0.000010
        364    16   -1.850949   -1.849620    0.001329   1.000   0.000094   0.000010
        365    16   -1.850949   -1.849630    0.001319   1.000   0.000094   0.000010
        366    14   -1.850948   -1.849639    0.001309   1.000   0.000094   0.000009
        367    16   -1.850947   -1.849648    0.001299   1.000   0.000093   0.000009
        368    16   -1.850947   -1.849658    0.001289   1.000   0.000093   0.000009
        369    14   -1.850946   -1.849666    0.001279   1.000   0.000093   0.000009
        370    16   -1.850945   -1.849675    0.001270   1.000   0.000093   0.000009
        371    16   -1.850944   -1.849684    0.001260   1.000   0.000093   0.000009
        372    14   -1.850944   -1.849693    0.001251   1.000   0.000093   0.000009
        373    16   -1.850943   -1.849701    0.001242   1.000   0.000092   0.000009
        374    16   -1.850942   -1.849709    0.001233   1.000   0.000092   0.000009
        375    14   -1.850941   -1.849718    0.001224   1.000   0.000092   0.000008
        376    16   -1.850941   -1.849726    0.001215   1.000   0.000092   0.000008
        377    16   -1.850940   -1.849734    0.001206   1.000   0.000092   0.000008
        378    14   -1.850939   -1.849741    0.001198   1.000   0.000092   0.000008
        379    16   -1.850938   -1.849749    0.001189   1.000   0.000091   0.000008
        380    16   -1.850937   -1.849757    0.001181   1.000   0.000091   0.000008
        381    14   -1.850937   -1.849764    0.001172   1.000   0.000091   0.000008
        382    16   -1.850936   -1.849772    0.001164   1.000   0.000091   0.000008
        383    16   -1.850935   -1.849779    0.001156   1.000   0.000091   0.000008
        384    14   -1.850934   -1.849786    0.001148   1.000   0.000091   0.000008
        385    16   -1.850933   -1.849793    0.001140   1.000   0.000090   0.000008
        386    16   -1.850932   -1.849800    0.001132   1.000   0.000090   0.000007
        387    14   -1.850932   -1.849807    0.001125   1.000   0.000090   0.000007
        388    16   -1.850931   -1.849814    0.001117   1.000   0.000090   0.000007
        389    16   -1.850930   -1.849820    0.001109   1.000   0.000090   0.000007
        390    14   -1.850929   -1.849827    0.001102   1.000   0.000090   0.000007
        391    17   -1.850928   -1.849833    0.001095   1.000   0.000089   0.000007
        392    17   -1.850927   -1.849840    0.001088   1.000   0.000089   0.000007
        393    14   -1.850926   -1.849846    0.001080   1.000   0.000089   0.000007
        394    16   -1.850925   -1.849852    0.001073   1.000   0.000089   0.000007
        395    17   -1.850924   -1.849858    0.001067   1.000   0.000089   0.000007
        396    14   -1.850924   -1.849864    0.001060   1.000   0.000089   0.000007
        397    16   -1.850923   -1.849870    0.001053   1.000   0.000089   0.000007
        398    16   -1.850922   -1.849875    0.001046   1.000   0.000088   0.000006
        399    14   -1.850921   -1.849881    0.001040   1.000   0.000088   0.000006
        400    16   -1.850920   -1.849887    0.001033   1.000   0.000088   0.000006
        401    16   -1.850919   -1.849892    0.001027   1.000   0.000088   0.000006
        402    14   -1.850918   -1.849897    0.001021   1.000   0.000088   0.000006
        403    17   -1.850917   -1.849903    0.001014   1.000   0.000088   0.000006
        404    16   -1.850916   -1.849908    0.001008   1.000   0.000087   0.000006
        405    14   -1.850915   -1.849913    0.001002   1.000   0.000087   0.000006
        406    16   -1.850914   -1.849918    0.000996   1.000   0.000087   0.000006
        407    16   -1.850913   -1.849923    0.000990   1.000   0.000087   0.000006
        408    14   -1.850912   -1.849928    0.000985   1.000   0.000087   0.000006
        409    16   -1.850911   -1.849932    0.000979   1.000   0.000087   0.000006
        410    17   -1.850910   -1.849937    0.000973   1.000   0.000087   0.000006
        411    14   -1.850909   -1.849942    0.000968   1.000   0.000086   0.000006
        412    16   -1.850908   -1.849946    0.000962   1.000   0.000086   0.000006
        413    16   -1.850907   -1.849951    0.000957   1.000   0.000086   0.000006
        414    14   -1.850906   -1.849955    0.000952   1.000   0.000086   0.000006
        415    16   -1.850905   -1.849959    0.000946   1.000   0.000086   0.000005
        416    16   -1.850904   -1.849963    0.000941   1.000   0.000086   0.000005
        417    14   -1.850903   -1.849967    0.000936   1.000   0.000085   0.000005
        418    16   -1.850902   -1.849971    0.000931   1.000   0.000085   0.000005
        419    16   -1.850901   -1.849975    0.000926   1.000   0.000085   0.000005
        420    14   -1.850900   -1.849979    0.000921   1.000   0.000085   0.000005
        421    16   -1.850899   -1.849983    0.000917   1.000   0.000085   0.000005
        422    16   -1.850898   -1.849987    0.000912   1.000   0.000085   0.000005
        423    14   -1.850897   -1.849990    0.000907   1.000   0.000085   0.000005
        424    16   -1.850896   -1.849994    0.000903   1.000   0.000084   0.000005
        425    16   -1.850895   -1.849997    0.000898   1.000   0.000084   0.000005
        426    14   -1.850894   -1.850001    0.000894   1.000   0.000084   0.000005
        427    16   -1.850893   -1.850004    0.000889   1.000   0.000084   0.000005
        428    16   -1.850892   -1.850007    0.000885   1.000   0.000084   0.000005
        429    14   -1.850891   -1.850011    0.000881   1.000   0.000084   0.000005
        430    16   -1.850890   -1.850014    0.000876   1.000   0.000084   0.000005
        431    17   -1.850889   -1.850017    0.000872   1.000   0.000083   0.000005
        432    14   -1.850888   -1.850020    0.000868   1.000   0.000083   0.000005
        433    16   -1.850887   -1.850023    0.000864   1.000   0.000083   0.000005
        434    17   -1.850886   -1.850026    0.000860   1.000   0.000083   0.000005
        435    14   -1.850885   -1.850029    0.000856   1.000   0.000083   0.000005
        436    16   -1.850884   -1.850031    0.000853   1.000   0.000083   0.000005
        437    16   -1.850883   -1.850034    0.000849   1.000   0.000083   0.000005
        438    14   -1.850882   -1.850037    0.000845   1.000   0.000082   0.000005
        439    16   -1.850881   -1.850039    0.000842   1.000   0.000082   0.000005
        440    16   -1.850880   -1.850042    0.000838   1.000   0.000082   0.000005
        441    14   -1.850879   -1.850044    0.000834   1.000   0.000082   0.000005
        442    16   -1.850878   -1.850047    0.000831   1.000   0.000082   0.000005
        443    16   -1.850877   -1.850049    0.000828   1.000   0.000082   0.000004
        444    14   -1.850876   -1.850051    0.000824   1.000   0.000082   0.000004
        445    16   -1.850875   -1.850054    0.000821   1.000   0.000082   0.000004
        446    16   -1.850873   -1.850056    0.000818   1.000   0.000081   0.000004
        447    14   -1.850872   -1.850058    0.000814   1.000   0.000081   0.000004
        448    16   -1.850871   -1.850060    0.000811   1.000   0.000081   0.000004
        449    16   -1.850870   -1.850062    0.000808   1.000   0.000081   0.000004
        450    14   -1.850869   -1.850064    0.000805   1.000   0.000081   0.000004
        451    16   -1.850868   -1.850066    0.000802   1.000   0.000081   0.000004
        452    16   -1.850867   -1.850068    0.000799   1.000   0.000081   0.000004
        453    14   -1.850866   -1.850070    0.000796   1.000   0.000080   0.000004
        454    16   -1.850865   -1.850071    0.000794   1.000   0.000080   0.000004
        455    16   -1.850864   -1.850073    0.000791   1.000   0.000080   0.000004
        456    14   -1.850863   -1.850075    0.000788   1.000   0.000080   0.000004
        457    16   -1.850862   -1.850076    0.000785   1.000   0.000080   0.000004
        458    16   -1.850861   -1.850078    0.000783   1.000   0.000080   0.000004
        459    14   -1.850860   -1.850079    0.000780   1.000   0.000080   0.000004
        460    17   -1.850858   -1.850081    0.000778   1.000   0.000080   0.000004
        461    16   -1.850857   -1.850082    0.000775   1.000   0.000079   0.000004
        462    14   -1.850856   -1.850084    0.000773   1.000   0.000079   0.000004
        463    16   -1.850855   -1.850085    0.000770   1.000   0.000079   0.000004
        464    16   -1.850854   -1.850086    0.000768   1.000   0.000079   0.000004
        465    14   -1.850853   -1.850087    0.000766   1.000   0.000079   0.000004
        466    16   -1.850852   -1.850089    0.000763   1.000   0.000079   0.000004
        467    16   -1.850851   -1.850090    0.000761   1.000   0.000079   0.000004
        468    14   -1.850850   -1.850091    0.000759   1.000   0.000079   0.000004
        469    16   -1.850849   -1.850092    0.000757   1.000   0.000078   0.000004
        470    16   -1.850848   -1.850093    0.000755   1.000   0.000078   0.000004
        471    14   -1.850847   -1.850094    0.000753   1.000   0.000078   0.000004
        472    16   -1.850845   -1.850095    0.000751   1.000   0.000078   0.000004
        473    17   -1.850844   -1.850096    0.000749   1.000   0.000078   0.000004
        474    14   -1.850843   -1.850097    0.000747   1.000   0.000078   0.000004
        475    16   -1.850842   -1.850097    0.000745   1.000   0.000078   0.000004
        476    16   -1.850841   -1.850098    0.000743   1.000   0.000078   0.000004
        477    14   -1.850840   -1.850099    0.000741   1.000   0.000077   0.000004
        478    16   -1.850839   -1.850100    0.000739   1.000   0.000077   0.000004
        479    17   -1.850838   -1.850100    0.000738   1.000   0.000077   0.000004
        480    14   -1.850837   -1.850101    0.000736   1.000   0.000077   0.000004
        481    17   -1.850836   -1.850101    0.000734   1.000   0.000077   0.000004
        482    16   -1.850834   -1.850102    0.000733   1.000   0.000077   0.000004
        483    14   -1.850833   -1.850102    0.000731   1.000   0.000077   0.000004
        484    16   -1.850832   -1.850103    0.000729   1.000   0.000077   0.000004
        485    16   -1.850831   -1.850103    0.000728   1.000   0.000076   0.000004
        486    14   -1.850830   -1.850104    0.000726   1.000   0.000076   0.000004
        487    16   -1.850829   -1.850104    0.000725   1.000   0.000076   0.000004
        488    16   -1.850828   -1.850104    0.000723   1.000   0.000076   0.000004
        489    14   -1.850827   -1.850105    0.000722   1.000   0.000076   0.000004
        490    16   -1.850826   -1.850105    0.000721   1.000   0.000076   0.000004
        491    17   -1.850825   -1.850105    0.000719   1.000   0.000076   0.000004
        492    14   -1.850823   -1.850106    0.000718   1.000   0.000076   0.000004
        493    16   -1.850822   -1.850106    0.000717   1.000   0.000076   0.000004
        494    16   -1.850821   -1.850106    0.000715   1.000   0.000075   0.000004
        495    14   -1.850820   -1.850106    0.000714   1.000   0.000075   0.000004
        496    16   -1.850819   -1.850106    0.000713   1.000   0.000075   0.000004
        497    17   -1.850818   -1.850106    0.000712   1.000   0.000075   0.000004
        498    14   -1.850817   -1.850106    0.000711   1.000   0.000075   0.000004
        499    17   -1.850816   -1.850106    0.000710   1.000   0.000075   0.000004

        ==> Orbital Optimization <==

            Orbital Optimization converged in 115 iterations 
            Total energy change: -1.258145e-01
            Final gradient norm: 9.779281e-05

        500    16   -1.976833   -1.850106    0.126727   1.000   0.000075   0.000004
        501    19   -2.023226   -2.228550    0.205323   1.000   0.024534   0.022768
        502    14   -1.987063   -2.711997    0.724934   1.000   0.015681   0.013635
        503    15   -1.885797   -2.816807    0.931009   1.000   0.009676   0.009258
        504    15   -1.826654   -2.516995    0.690342   1.000   0.006492   0.005778
        505    15   -1.779261   -2.132648    0.353388   1.000   0.006422   0.003951
        506    16   -1.749497   -1.905967    0.156469   1.000   0.006733   0.001810
        507    18   -1.752799   -1.729982    0.022817   1.000   0.006130   0.001781
        508    17   -1.787007   -1.610686    0.176320   1.000   0.005075   0.001813
        509    16   -1.844738   -1.537698    0.307040   1.000   0.003642   0.001730
        510    14   -1.915085   -1.503735    0.411350   1.000   0.001970   0.001809
        511    15   -1.986034   -1.508192    0.477842   1.000   0.000834   0.001805
        512    16   -2.047185   -1.551754    0.495431   1.000   0.001885   0.001557
        513    16   -2.086106   -1.690273    0.395833   1.000   0.002909   0.001078
        514    18   -2.098912   -1.883585    0.215327   1.000   0.003291   0.000546
        515    18   -2.090553   -2.054913    0.035641   1.000   0.003120   0.000427
        516    17   -2.068510   -2.179208    0.110699   1.000   0.002573   0.000637
        517    17   -2.039960   -2.249469    0.209509   1.000   0.001810   0.000815
        518    15   -2.010333   -2.270673    0.260340   1.000   0.000965   0.000906
        519    15   -1.983139   -2.253326    0.270187   1.000   0.000245   0.000900
        520    18   -1.960495   -2.209056    0.248561   1.000   0.000690   0.000799
        521    18   -1.943738   -2.148532    0.204795   1.000   0.001235   0.000625
        522    17   -1.933756   -2.081101    0.147345   1.000   0.001564   0.000432
        523    17   -1.930992   -2.015004    0.084011   1.000   0.001648   0.000317
        524    18   -1.935253   -1.957462    0.022210   1.000   0.001505   0.000357
        525    18   -1.945544   -1.914327    0.031217   1.000   0.001177   0.000457
        526    14   -1.960085   -1.889421    0.070664   1.000   0.000731   0.000527
        527    14   -1.976538   -1.883992    0.092545   1.000   0.000250   0.000540
        528    15   -1.992404   -1.896484    0.095920   1.000   0.000251   0.000501
        529    18   -2.005461   -1.922928    0.082534   1.000   0.000613   0.000426
        530    18   -2.014130   -1.957770    0.056359   1.000   0.000852   0.000343
        531    17   -2.017684   -1.994901    0.022783   1.000   0.000941   0.000289
        532    16   -2.016277   -2.028706    0.012429   1.000   0.000887   0.000288
        533    18   -2.010802   -2.054862    0.044060   1.000   0.000716   0.000320
        534    15   -2.002648   -2.070795    0.068147   1.000   0.000469   0.000351
        535    15   -1.993403   -2.075763    0.082359   1.000   0.000194   0.000362
        536    15   -1.984587   -2.070682    0.086095   1.000   0.000090   0.000350
        537    18   -1.977425   -2.057708    0.080282   1.000   0.000297   0.000321
        538    18   -1.972721   -2.039732    0.067012   1.000   0.000439   0.000287
        539    16   -1.970801   -2.019897    0.049096   1.000   0.000500   0.000263
        540    17   -1.971548   -2.001125    0.029576   1.000   0.000483   0.000256
        541    18   -1.974487   -1.985777    0.011290   1.000   0.000401   0.000263
        542    15   -1.978906   -1.975418    0.003488   1.000   0.000275   0.000273
        543    15   -1.983995   -1.970735    0.013261   1.000   0.000133   0.000278
        544    14   -1.988972   -1.971544    0.017428   1.000   0.000045   0.000274
        545    18   -1.993187   -1.976951    0.016236   1.000   0.000144   0.000263
        546    16   -1.996188   -1.985559    0.010628   1.000   0.000226   0.000249
        547    15   -1.997759   -1.995722    0.002038   1.000   0.000268   0.000238
        548    15   -1.997912   -2.005808    0.007895   1.000   0.000267   0.000233
        549    15   -1.996851   -2.014417    0.017567   1.000   0.000231   0.000232
        550    15   -1.994915   -2.020547    0.025633   1.000   0.000170   0.000234
        551    15   -1.992514   -2.023674    0.031160   1.000   0.000096   0.000235
        552    15   -1.990063   -2.023762    0.033699   1.000   0.000032   0.000233
        553    18   -1.987923   -2.021202    0.033279   1.000   0.000059   0.000228
        554    16   -1.986357   -2.016693    0.030336   1.000   0.000106   0.000222
        555    14   -1.985515   -2.011110    0.025595   1.000   0.000134   0.000216
        556    15   -1.985425   -2.005355    0.019930   1.000   0.000140   0.000213
        557    15   -1.986006   -2.000224    0.014217   1.000   0.000126   0.000211
        558    15   -1.987101   -1.996318    0.009218   1.000   0.000097   0.000210
        559    15   -1.988500   -1.993985    0.005485   1.000   0.000060   0.000208
        560    15   -1.989985   -1.993305    0.003320   1.000   0.000027   0.000207
        561    15   -1.991355   -1.994120    0.002765   1.000   0.000031   0.000204
        562    18   -1.992452   -1.996088    0.003637   1.000   0.000056   0.000200
        563    14   -1.993178   -1.998759    0.005581   1.000   0.000074   0.000197
        564    15   -1.993499   -2.001645    0.008146   1.000   0.000080   0.000194
        565    15   -1.993442   -2.004302    0.010861   1.000   0.000076   0.000192
        566    15   -1.993079   -2.006380    0.013302   1.000   0.000063   0.000191
        567    15   -1.992515   -2.007657    0.015142   1.000   0.000045   0.000189
        568    15   -1.991869   -2.008054    0.016185   1.000   0.000028   0.000187
        569    14   -1.991253   -2.007625    0.016372   1.000   0.000022   0.000185
        570    15   -1.990758   -2.006530    0.015772   1.000   0.000030   0.000182
        571    15   -1.990449   -2.004998    0.014549   1.000   0.000039   0.000180
        572    15   -1.990352   -2.003287    0.012935   1.000   0.000044   0.000178
        573    15   -1.990462   -2.001641    0.011180   1.000   0.000043   0.000176
        574    14   -1.990746   -2.000265    0.009519   1.000   0.000037   0.000174
        575    15   -1.991151   -1.999294    0.008143   1.000   0.000029   0.000172
        576    15   -1.991614   -1.998791    0.007176   1.000   0.000022   0.000170
        577    15   -1.992075   -1.998745    0.006670   1.000   0.000019   0.000169
        578    14   -1.992479   -1.999084    0.006605   1.000   0.000021   0.000167
        579    15   -1.992788   -1.999694    0.006906   1.000   0.000026   0.000165
        580    15   -1.992983   -2.000440    0.007457   1.000   0.000028   0.000163
        581    15   -1.993062   -2.001187    0.008125   1.000   0.000028   0.000161
        582    15   -1.993040   -2.001820    0.008780   1.000   0.000026   0.000159
        583    15   -1.992943   -2.002256    0.009313   1.000   0.000022   0.000157
        584    15   -1.992802   -2.002450    0.009647   1.000   0.000018   0.000156
        585    14   -1.992653   -2.002397    0.009744   1.000   0.000016   0.000154
        586    15   -1.992526   -2.002128    0.009603   1.000   0.000016   0.000152
        587    15   -1.992442   -2.001700    0.009258   1.000   0.000017   0.000151
        588    14   -1.992415   -2.001181    0.008766   1.000   0.000018   0.000149
        589    15   -1.992449   -2.000645    0.008196   1.000   0.000018   0.000147
        590    15   -1.992537   -2.000157    0.007620   1.000   0.000018   0.000146
        591    14   -1.992668   -1.999767    0.007099   1.000   0.000016   0.000144
        592    15   -1.992825   -1.999504    0.006679   1.000   0.000015   0.000143
        593    15   -1.992989   -1.999376    0.006387   1.000   0.000015   0.000141
        594    14   -1.993143   -1.999371    0.006228   1.000   0.000015   0.000140
        595    15   -1.993276   -1.999463    0.006187   1.000   0.000015   0.000138
        596    15   -1.993377   -1.999616    0.006238   1.000   0.000016   0.000136
        597    14   -1.993445   -1.999790    0.006345   1.000   0.000016   0.000135
        598    15   -1.993481   -1.999949    0.006468   1.000   0.000015   0.000133
        599    15   -1.993490   -2.000064    0.006574   1.000   0.000015   0.000132
        600    13   -1.993481   -2.000116    0.006635   1.000   0.000014   0.000131
        601    15   -1.993464   -2.000098    0.006633   1.000   0.000013   0.000129
        602    12   -1.993449   -2.000014    0.006565   1.000   0.000013   0.000128
        603    15   -1.993442   -1.999873    0.006431   1.000   0.000013   0.000126
        604    15   -1.993449   -1.999699    0.006249   1.000   0.000013   0.000125
        605    15   -1.993473   -1.999508    0.006035   1.000   0.000012   0.000124
        606    15   -1.993513   -1.999323    0.005809   1.000   0.000012   0.000122
        607    14   -1.993567   -1.999159    0.005592   1.000   0.000012   0.000121
        608    15   -1.993630   -1.999028    0.005398   1.000   0.000012   0.000120
        609    15   -1.993698   -1.998936    0.005238   1.000   0.000011   0.000118
        610    15   -1.993765   -1.998882    0.005117   1.000   0.000011   0.000117
        611    14   -1.993827   -1.998860    0.005033   1.000   0.000011   0.000116
        612    15   -1.993881   -1.998862    0.004982   1.000   0.000011   0.000115
        613    15   -1.993925   -1.998877    0.004953   1.000   0.000011   0.000113
        614    14   -1.993959   -1.998894    0.004935   1.000   0.000011   0.000112
        615    14   -1.993984   -1.998902    0.004918   1.000   0.000011   0.000111
        616    15   -1.994002   -1.998896    0.004894   1.000   0.000011   0.000110
        617    15   -1.994016   -1.998870    0.004854   1.000   0.000011   0.000109
        618    14   -1.994029   -1.998826    0.004797   1.000   0.000010   0.000107
        619    12   -1.994042   -1.998765    0.004722   1.000   0.000010   0.000106
        620    12   -1.994059   -1.998687    0.004628   1.000   0.000010   0.000105
        621    15   -1.994080   -1.998609    0.004530   1.000   0.000010   0.000104
        622    15   -1.994105   -1.998525    0.004420   1.000   0.000010   0.000103
        623    14   -1.994134   -1.998446    0.004313   1.000   0.000010   0.000102
        624    15   -1.994166   -1.998376    0.004210   1.000   0.000010   0.000101
        625    12   -1.994200   -1.998317    0.004117   1.000   0.000010   0.000099
        626    15   -1.994234   -1.998269    0.004035   1.000   0.000009   0.000098
        627    15   -1.994267   -1.998232    0.003965   1.000   0.000009   0.000097
        628    14   -1.994298   -1.998203    0.003905   1.000   0.000009   0.000096
        629    15   -1.994326   -1.998181    0.003855   1.000   0.000009   0.000095
        630    15   -1.994351   -1.998161    0.003810   1.000   0.000009   0.000094
        631    14   -1.994373   -1.998140    0.003767   1.000   0.000009   0.000093
        632    15   -1.994392   -1.998116    0.003724   1.000   0.000009   0.000092
        633    15   -1.994409   -1.998088    0.003679   1.000   0.000009   0.000091
        634    14   -1.994425   -1.998055    0.003630   1.000   0.000008   0.000090
        635    15   -1.994441   -1.998017    0.003576   1.000   0.000008   0.000089
        636    12   -1.994457   -1.997976    0.003518   1.000   0.000008   0.000088
        637    12   -1.994474   -1.997929    0.003455   1.000   0.000008   0.000087
        638    13   -1.994492   -1.997884    0.003391   1.000   0.000008   0.000086
        639    12   -1.994511   -1.997839    0.003328   1.000   0.000008   0.000086
        640    14   -1.994531   -1.997797    0.003266   1.000   0.000008   0.000085
        641    15   -1.994551   -1.997756    0.003205   1.000   0.000008   0.000084
        642    15   -1.994571   -1.997721    0.003150   1.000   0.000008   0.000083
        643    14   -1.994591   -1.997688    0.003097   1.000   0.000008   0.000082
        644    15   -1.994610   -1.997659    0.003049   1.000   0.000008   0.000081
        645    15   -1.994629   -1.997632    0.003003   1.000   0.000007   0.000080
        646    14   -1.994646   -1.997606    0.002961   1.000   0.000007   0.000079
        647    15   -1.994662   -1.997581    0.002920   1.000   0.000007   0.000078
[...]
          1.461235035644       0.000000000000
          1.449205321492       0.000000000000
          1.429850727046       0.028781058674
          1.429850727046      -0.028781058674
          1.356825636661       0.000000000000
          1.303406446059       0.003015809948
          1.303406446059      -0.003015809948
          0.213708834125       0.279261968611
          0.213708834125      -0.279261968611
          1.248135599150       0.009400325323
          1.248135599150      -0.009400325323
          1.086791270980       0.124973605312
          1.086791270980      -0.124973605312
          1.199279661610       0.000000000000
          1.124510433956       0.075841404577
          1.124510433956      -0.075841404577
          1.173483121152       0.000000000000
          1.155298284244       0.000000000000
          1.105468593994       0.000000000000
          1.095449939306       0.000000000000
          1.076379725767       0.026023849823
          1.076379725767      -0.026023849823
          1.065116523015       0.000000000000
          1.063469381696       0.000000000000
          1.041030894320       0.007714092057
          1.041030894320      -0.007714092057
          1.048494956767       0.000000000000
          1.042214816057       0.000000000000
          1.009800158935       0.000000000000
          1.005261062327       0.000000000000
          0.829501134446       0.049302591540
          0.829501134446      -0.049302591540
          0.982317167127       0.000000000000
          0.978893421358       0.000000000000
          0.879191730872       0.007437609336
          0.879191730872      -0.007437609336
          0.952194648972       0.013859037228
          0.952194648972      -0.013859037228
          0.947499195579       0.000000000000
          0.932480697613       0.000000000000
          0.935524240910       0.000000000000
          0.939532338513       0.000000000000
          0.941144121305       0.000000000000
          0.814044085457       0.000000000000
          0.798788302966       0.000000000000
          0.684087828694       0.105173203222
          0.684087828694      -0.105173203222
          0.731346824484       0.010894647688
          0.731346824484      -0.010894647688
          0.665899480578       0.000000000000
          0.676883910603       0.000000000000
          0.678167754940       0.000000000000
          0.679649853752       0.000000000000
          0.679438045748       0.000000000000
          0.524335436555       0.047571604439
          0.524335436555      -0.047571604439
          0.582504102484       0.027064009473
          0.582504102484      -0.027064009473
          0.583375184190       0.000000000000
          0.575850287180       0.000000000000
          0.555143383611       0.000000000000
          0.529956516510       0.000000000000
          0.364963327290       0.000000000000
          0.494862949668       0.000000000000
          0.423757729657       0.000000000000
          0.458921344717       0.008692093679
          0.458921344717      -0.008692093679
          0.440491841293       0.000000000000
         -0.000000000000       0.338900115655
         -0.000000000000      -0.338900115655
          0.187703751465       0.000000000000
          0.015812994159       0.294245614534
          0.015812994159      -0.294245614534
         -0.015812994229       0.294245614563
         -0.015812994229      -0.294245614563
          0.000000000026       0.280872479142
          0.000000000026      -0.280872479142
         -0.213708834156       0.279261968541
         -0.213708834156      -0.279261968541
          0.015256393165       0.189976298522
          0.015256393165      -0.189976298522
         -0.015256393138       0.189976298419
         -0.015256393138      -0.189976298419
          0.000000000070       0.149898673817
          0.000000000070      -0.149898673817
          0.000000000000       0.000714426635
          0.000000000000      -0.000714426635
          0.000190889821       0.000000000000
         -0.000190889821       0.000000000000
         -0.187703751339       0.000000000000
         -2.055186210004       0.000000000000
         -1.382520426936       0.314767557263
         -1.382520426936      -0.314767557263
         -0.364963327251       0.000000000000
         -1.999605512588       0.022510441736
         -1.999605512588      -0.022510441736
         -2.002846538970       0.000000000000
         -0.423757729432       0.000000000000
         -0.440491841474       0.000000000000
         -0.458921344707       0.008692093669
         -0.458921344707      -0.008692093669
         -0.494862949799       0.000000000000
         -0.524335436547       0.047571604408
         -0.524335436547      -0.047571604408
         -0.529956516555       0.000000000000
         -0.684087828666       0.105173203250
         -0.684087828666      -0.105173203250
         -0.555143383856       0.000000000000
         -0.582504102664       0.027064009709
         -0.582504102664      -0.027064009709
         -0.575850286935       0.000000000000
         -0.583375184108       0.000000000000
         -1.991974972830       0.000000000000
         -0.665899480525       0.000000000000
         -0.731346824639       0.010894647465
         -0.731346824639      -0.010894647465
         -0.676883910603       0.000000000000
         -0.678167754940       0.000000000000
         -0.679649853752       0.000000000000
         -0.679438045748       0.000000000000
         -1.609795715105       0.000000000000
         -1.675739672695       0.009494450830
         -1.675739672695      -0.009494450830
         -0.829501134499       0.049302591547
         -0.829501134499      -0.049302591547
         -0.798788302951       0.000000000000
         -0.814044085445       0.000000000000
         -1.541602001397       0.000000000000
         -1.086791270995       0.124973605272
         -1.086791270995      -0.124973605272
         -0.879191730868       0.007437609358
         -0.879191730868      -0.007437609358
         -1.248135599094       0.009400325247
         -1.248135599094      -0.009400325247
         -1.124510433996       0.075841404544
         -1.124510433996      -0.075841404544
         -1.199279661719       0.000000000000
         -1.173483121142       0.000000000000
         -1.155298284537       0.000000000000
         -0.952194648986       0.013859037226
         -0.952194648986      -0.013859037226
         -0.932480697613       0.000000000000
         -0.935524240907       0.000000000000
         -0.947499195677       0.000000000000
         -0.939532338520       0.000000000000
         -0.941144121304       0.000000000000
         -0.982317167135       0.000000000000
         -0.978893421357       0.000000000000
         -1.105468593994       0.000000000000
         -1.076379725778       0.026023849808
         -1.076379725778      -0.026023849808
         -1.005261062329       0.000000000000
         -1.009800158915       0.000000000000
         -1.095449939338       0.000000000000
         -1.041030894282       0.007714092054
         -1.041030894282      -0.007714092054
         -1.042214816080       0.000000000000
         -1.048494956770       0.000000000000
         -1.065116523016       0.000000000000
         -1.063469381696       0.000000000000
         -1.303406446069       0.003015809980
         -1.303406446069      -0.003015809980
         -1.735307877564       0.017748479775
         -1.735307877564      -0.017748479775
         -1.742820961391       0.000000000000
         -1.755801249980       0.000000000000
         -1.356825636660       0.000000000000
         -1.461235035650       0.000000000000
         -1.429850727052       0.028781058667
         -1.429850727052      -0.028781058667
         -1.449205321481       0.000000000000
         -1.812881147893       0.000000000000
         -1.894336912396       0.000000000000
         -1.822445161138       0.000461525647
         -1.822445161138      -0.000461525647
         -1.827569318150       0.000000000000
         -1.829482015886       0.000953812031
         -1.829482015886      -0.000953812031
         -1.832418163515       0.000000000000
         -1.841524456210       0.001854386296
         -1.841524456210      -0.001854386296
         -1.845876723147       0.000000000000
         -1.856532833413       0.000000000000
         -1.955441469043       0.000000000000
         -1.946597653468       0.000000000000
         -1.961096736262       0.000000000000
         -1.961945201049       0.000000000000
         -1.962440488102       0.000000000000
         -1.962402471507       0.000000000000
         -1.962693763860       0.000000000000
         -1.962707518741       0.000000000000
         -1.870590878196       0.000000000000
         -1.870305346143       0.000000000000
         -1.870276535676       0.000000000000
         -1.872284928786       0.000000000000
         -1.872680436330       0.000000000000
         -1.872602587348       0.000000000000
         -1.872616002859       0.000000000000
         -1.935075219960       0.000000000000
         -1.937134156995       0.000000000000
         -1.938784278019       0.000000000000
         -1.938843347976       0.000000000000
         -1.939217111517       0.000000000000
         -1.939744868347       0.000000000000
         -1.939696147243       0.000000000000
         -1.939331108830       0.000000000000
         -1.939388831097       0.000000000000
         -1.939475245864       0.000000000000
         -1.939601605221       0.000000000000
         -1.939578502168       0.000000000000
          1.417127458457       0.000000000000
         -1.417127458455       0.000000000000
         -1.412349170519       0.000000000000
         -1.412239050731       0.000000000000
         -1.407905103542       0.000000000000
         -1.407915292315       0.000000000000
         -1.408611449382       0.000000000000
         -1.408628694141       0.000000000000
         -1.408629669167       0.000000000000
         -1.408632051864       0.000000000000
         -1.410844684280       0.000000000000
         -1.410839640089       0.000000000000
         -1.410840879106       0.000000181356
         -1.410840879106      -0.000000181356
          1.412349170519       0.000000000000
          1.412239050731       0.000000000000
          1.407915292315       0.000000000000
          1.407905103542       0.000000000000
          1.408611449382       0.000000000000
          1.408632051864       0.000000000000
          1.408629669167       0.000000000000
          1.408628694141       0.000000000000
          1.410844684280       0.000000000000
          1.410839640089       0.000000000000
          1.410840879106       0.000000181356
          1.410840879106      -0.000000181356

info:     0
General_solver

eigenvalue       1.410840879106
 norm is             0.083487



eigenvalue       1.410840879106
 norm is             0.083487



eigenvalue       1.410839640089
 norm is             0.190796



eigenvalue       1.410844684280
 norm is             0.016203



eigenvalue       1.408628694141
 norm is             0.234093



eigenvalue       1.408629669167
 norm is             0.199138



eigenvalue       1.408632051864
 norm is             0.114044



eigenvalue       1.408611449382
 norm is             0.007857



eigenvalue       1.407905103542
 norm is             0.081847



eigenvalue       1.407915292315
 norm is             0.014330



eigenvalue       1.412239050731
 norm is             0.015440



eigenvalue       1.412349170519
 norm is             0.002976



eigenvalue       1.417127458457
 norm is             0.000341



eigenvalue       0.000190889821
 norm is             0.045456



eigenvalue       0.187703751465
 norm is             0.000299



eigenvalue       0.440491841293
 norm is             0.000494



eigenvalue       0.423757729657
 norm is             0.000253



eigenvalue       0.494862949668
 norm is             0.000297



eigenvalue       0.364963327290
 norm is             0.000331



eigenvalue       0.529956516510
 norm is             0.000537



eigenvalue       0.555143383611
 norm is             0.000590



eigenvalue       0.575850287180
 norm is             0.000370



eigenvalue       0.583375184190
 norm is             0.000332



eigenvalue       0.679438045748
 norm is             0.041203



eigenvalue       0.679649853752
 norm is             0.014305



eigenvalue       0.678167754940
 norm is             0.021538



eigenvalue       0.676883910603
 norm is             0.019316



eigenvalue       0.665899480578
 norm is             0.000260



eigenvalue       0.798788302966
 norm is             0.000918



eigenvalue       0.814044085457
 norm is             0.000398



eigenvalue       0.941144121305
 norm is             0.003708



eigenvalue       0.939532338513
 norm is             0.001103



eigenvalue       0.935524240910
 norm is             0.001757



eigenvalue       0.932480697613
 norm is             0.001611



eigenvalue       0.947499195579
 norm is             0.000848



eigenvalue       0.978893421358
 norm is             0.007168



eigenvalue       0.982317167127
 norm is             0.003983



eigenvalue       1.005261062327
 norm is             0.001468



eigenvalue       1.009800158935
 norm is             0.000824



eigenvalue       1.042214816057
 norm is             0.000401



eigenvalue       1.048494956767
 norm is             0.000850



eigenvalue       1.063469381696
 norm is             0.006275



eigenvalue       1.065116523015
 norm is             0.001974



eigenvalue       1.095449939306
 norm is             0.001863



eigenvalue       1.105468593994
 norm is             0.001435



eigenvalue       1.155298284244
 norm is             0.000512



eigenvalue       1.173483121152
 norm is             0.000432



eigenvalue       1.199279661610
 norm is             0.000543



eigenvalue       1.356825636661
 norm is             0.000620



eigenvalue       1.449205321492
 norm is             0.000904



eigenvalue       1.461235035644
 norm is             0.001392



eigenvalue       1.939578502168
 norm is             0.023046



eigenvalue       1.939601605221
 norm is             0.058893



eigenvalue       1.939475245864
 norm is             0.010678



eigenvalue       1.939696147243
 norm is             0.038032



eigenvalue       1.939388831097
 norm is             0.013069



eigenvalue       1.939331108830
 norm is             0.039503



eigenvalue       1.939744868347
 norm is             0.061955



eigenvalue       1.939217111517
 norm is             0.012276



eigenvalue       1.938843347976
 norm is             0.030506



eigenvalue       1.938784278019
 norm is             0.016913



eigenvalue       1.937134156995
 norm is             0.004557



eigenvalue       1.935075219960
 norm is             0.004462



eigenvalue       1.872602587348
 norm is             0.053260



eigenvalue       1.872616002859
 norm is             0.010604



eigenvalue       1.872680436330
 norm is             0.004032



eigenvalue       1.872284928786
 norm is             0.018678



eigenvalue       1.870305346143
 norm is             0.026191



eigenvalue       1.870276535677
 norm is             0.004084



eigenvalue       1.870590878197
 norm is             0.001693



eigenvalue       1.946597653469
 norm is             0.001725



eigenvalue       1.962402471507
 norm is             0.039300



eigenvalue       1.962440488102
 norm is             0.050140



eigenvalue       1.962693763860
 norm is             0.087168



eigenvalue       1.962707518741
 norm is             0.047448



eigenvalue       1.961945201049
 norm is             0.007981



eigenvalue       1.961096736263
 norm is             0.007130



eigenvalue       1.955441469041
 norm is             0.001117



eigenvalue       1.827569318150
 norm is             0.004262



eigenvalue       1.832418163516
 norm is             0.003515



eigenvalue       1.845876723148
 norm is             0.003245



eigenvalue       1.856532833410
 norm is             0.002263



eigenvalue       1.812881147893
 norm is             0.001976



eigenvalue       1.894336912396
 norm is             0.000948



eigenvalue       1.541602001373
 norm is             0.001426



eigenvalue       1.755801249680
 norm is             0.000589



eigenvalue       1.742820961895
 norm is             0.000860



eigenvalue       1.609795715097
 norm is             0.000570



eigenvalue       1.991974972898
 norm is             0.001257



eigenvalue       2.002846538974
 norm is             0.001276



eigenvalue       2.055186210021
 norm is             0.001276



eigenvalue       2.113719556195
 norm is             0.000921



eigenvalue       2.264826946102
 norm is             0.001593



eigenvalue       2.266873497238
 norm is             0.001547



eigenvalue       2.242144917913
 norm is             0.001055



eigenvalue       2.365706260076
 norm is             0.000671



eigenvalue       2.421572863547
 norm is             0.000814



eigenvalue       2.566020452307
 norm is             0.000851



eigenvalue       2.597470481663
 norm is             0.000775



eigenvalue       2.651252949107
 norm is             0.001085



eigenvalue       2.816826644520
 norm is             0.001388



eigenvalue       2.845064607307
 norm is             0.000782



eigenvalue       3.003251114009
 norm is             0.001368



eigenvalue       3.112746763444
 norm is             0.001123



eigenvalue       3.554256406742
 norm is             0.000984



eigenvalue       3.569948695093
 norm is             0.000778



eigenvalue       3.744589103906
 norm is             0.000383



eigenvalue       3.811870324399
 norm is             0.000482



eigenvalue       3.868749181417
 norm is             0.000200



eigenvalue       4.167444256807
 norm is             0.000708



eigenvalue       4.791565559073
 norm is             0.001260



eigenvalue       4.849831840560
 norm is             0.000608



eigenvalue       5.078828377485
 norm is             0.000809



eigenvalue       7.092809596706
 norm is             0.233028



eigenvalue       7.087707788876
 norm is             0.256469



eigenvalue       7.259746421713
 norm is             0.000713



eigenvalue       8.704968097311
 norm is             0.000192



eigenvalue       8.871625659273
 norm is             0.000326



eigenvalue       9.275887644955
 norm is             0.000922



eigenvalue       9.470269512966
 norm is             0.000705



eigenvalue       9.680907292639
 norm is             0.000925



eigenvalue      12.960744383005
 norm is             0.000463



eigenvalue      25.763623186770
 norm is             0.000454



eigenvalue      28.144076508230
 norm is             0.000020



eigenvalue      34.704240450935
 norm is             0.000257



eigenvalue      48.051087649120
 norm is             0.000467



eigenvalue    1098.425121374987
 norm is             0.015875



eigenvalue    1085.832532585212
 norm is             0.015858


     -0.415956607744

    Reference energy                  -1.997212113175


    * AC correlation energy            0.079404504894
    * AC total energy                 -1.917807608282


*** tstop() called on ed4 at Wed Nov 14 10:49:08 2018
Module time:
	user time   =     293.79 seconds =       4.90 minutes
	system time =      12.68 seconds =       0.21 minutes
	total time  =        241 seconds =       4.02 minutes
Total time:
	user time   =     400.59 seconds =       6.68 minutes
	system time =      18.72 seconds =       0.31 minutes
	total time  =        261 seconds =       4.35 minutes

    Psi4 stopped on: Wednesday, 14 November 2018 10:49AM
    Psi4 wall time for execution: 0:04:21.81

*** Psi4 exiting successfully. Buy a developer a beer!
