
    -----------------------------------------------------------------------
          Psi4: An Open-Source Ab Initio Electronic Structure Package
                               Psi4 1.2rc3.dev4 

                         Git: Rev {psi4_N} 0e159c1 dirty


    R. M. Parrish, L. A. Burns, D. G. A. Smith, A. C. Simmonett,
    A. E. DePrince III, E. G. Hohenstein, U. Bozkaya, A. Yu. Sokolov,
    R. Di Remigio, R. M. Richard, J. F. Gonthier, A. M. James,
    H. R. McAlexander, A. Kumar, M. Saitow, X. Wang, B. P. Pritchard,
    P. Verma, H. F. Schaefer III, K. Patkowski, R. A. King, E. F. Valeev,
    F. A. Evangelista, J. M. Turney, T. D. Crawford, and C. D. Sherrill,
    J. Chem. Theory Comput. 13(7) pp 3185--3197 (2017).
    (doi: 10.1021/acs.jctc.7b00174)

    -----------------------------------------------------------------------


    Psi4 started on: Wednesday, 14 November 2018 11:39AM

    Process ID: 20872
    Host:       ed4
    PSIDATADIR: /edfs/users/namvu/software/psi4_May_18/intel-release/share/psi4
    Memory:     500.0 MiB
    Threads:    6
    
  ==> Input File <==

--------------------------------------------------------------------------
# PYTHONPATH must include directory above plugin directory.
#     Define either externally or here, then import plugin.
sys.path.insert(0, '/edfs/users/namvu/chem/')
import v2rdm_casscf
sys.path.insert(0, '/edfs/users/namvu/software')
import v2rdm_doci
sys.path.insert(0, '/edfs/users/namvu/chem/deprince-group/plugins/erpa/new_erpa')
import erpa

memory 8000 mb

molecule h4 {
 h
 h 1 R
 h 2 R 1 180.0
 h 3 R 2 180.0 1 180.0 
# h 4 R 3 180.0 2 180.0
# h 5 R 4 180.0 3 180.0
# h 6 R 5 180.0 4 180.0
# h 7 R 6 180.0 5 180.0
symmetry c1
}

Rvals=[3.9]

set {
  guess sad
  basis cc-pvdz
  scf_type df
  d_convergence 1e-8
  reference rhf
  maxiter 500
}
set v2rdm_doci {
  positivity dqg #t2
  tpdm_write_full true
  r_convergence  1e-6
  e_convergence  1e-5
  maxiter 1000000
  orbopt_one_step true
}
set v2rdm_casscf {
 nat_orbs true
# tpdm_guess hf
# constrain_spin true
# cg_convergence 1e-6
}
# optimize_orbitals true
# orbopt_active_active_rotations false
# semicanonicalize_orbitals false
# mu_update_frequency 500
# restricted_docc  [ 0, 0, 0, 0, 0, 0, 0, 0 ]
# active           [ 2, 0, 0, 0, 0, 2, 0, 0 ]
# molden_write true

set erpa {
 pruning_threshold 1e-6
 spin_adapt_erpa true
 adiabatic_connection true
}
for R in Rvals: 
   h4.R = R
#for R in range (0,40):
#   h4.R = 0.6 + 0.1 * R
   en, wfn = energy('v2rdm-doci',return_wfn=True)
   energy('erpa',ref_wfn=wfn)

--------------------------------------------------------------------------

  Memory set to   7.451 GiB by Python driver.
Molecule: geometry: Molecule is not complete, please use 'update_geometry'
                    once all variables are set.
Molecule: Setting geometry variable R to 3.900000

*** tstart() called on ed4
*** at Wed Nov 14 11:39:33 2018

   => Loading Basis Set <=

    Name: CC-PVDZ
    Role: ORBITAL
    Keyword: BASIS
    atoms 1-4 entry H          line    22 file /edfs/users/namvu/software/psi4_May_18/intel-release/share/psi4/basis/cc-pvdz.gbs 

    There are an even number of electrons - assuming singlet.
    Specify the multiplicity in the molecule input block.


         ---------------------------------------------------------
                                   SCF
            by Justin Turney, Rob Parrish, Andy Simmonett
                             and Daniel Smith
                              RHF Reference
                        6 Threads,   7629 MiB Core
         ---------------------------------------------------------

  ==> Geometry <==

    Molecular point group: c1
    Full point group: D_inf_h

    Geometry (in Angstrom), charge = 0, multiplicity = 1:

       Center              X                  Y                   Z               Mass       
    ------------   -----------------  -----------------  -----------------  -----------------
         H            0.000000000000     0.000000000000    -5.850000000000     1.007825032070
         H            0.000000000000     0.000000000000    -1.950000000000     1.007825032070
         H            0.000000000000     0.000000000000     1.950000000000     1.007825032070
         H            0.000000000000     0.000000000000     5.850000000000     1.007825032070

  Running in c1 symmetry.

  Rotational constants: A = ************  B =      0.21994  C =      0.21994 [cm^-1]
  Rotational constants: A = ************  B =   6593.75546  C =   6593.75546 [MHz]
  Nuclear repulsion =    0.587974676211111

  Charge       = 0
  Multiplicity = 1
  Electrons    = 4
  Nalpha       = 2
  Nbeta        = 2

  ==> Algorithm <==

  SCF Algorithm Type is DF.
  DIIS enabled.
  MOM disabled.
  Fractional occupation disabled.
  Guess Type is SAD.
  Energy threshold   = 1.00e-08
  Density threshold  = 1.00e-08
  Integral threshold = 0.00e+00

  ==> Primary Basis <==

  Basis Set: CC-PVDZ
    Blend: CC-PVDZ
    Number of shells: 12
    Number of basis function: 20
    Number of Cartesian functions: 20
    Spherical Harmonics?: true
    Max angular momentum: 1

   => Loading Basis Set <=

    Name: (CC-PVDZ AUX)
    Role: JKFIT
    Keyword: DF_BASIS_SCF
    atoms 1-4 entry H          line    51 file /edfs/users/namvu/software/psi4_May_18/intel-release/share/psi4/basis/cc-pvdz-jkfit.gbs 

  ==> Pre-Iterations <==

   -------------------------------------------------------
    Irrep   Nso     Nmo     Nalpha   Nbeta   Ndocc  Nsocc
   -------------------------------------------------------
     A         20      20       0       0       0       0
   -------------------------------------------------------
    Total      20      20       2       2       2       0
   -------------------------------------------------------

  ==> Integral Setup <==

  ==> DiskDFJK: Density-Fitted J/K Matrices <==

    J tasked:                  Yes
    K tasked:                  Yes
    wK tasked:                  No
    OpenMP threads:              6
    Integrals threads:           6
    Memory (MB):              5722
    Algorithm:                Core
    Integral Cache:           SAVE
    Schwarz Cutoff:          1E-12
    Fitting Condition:       1E-12

   => Auxiliary Basis Set <=

  Basis Set: (CC-PVDZ AUX)
    Blend: CC-PVDZ-JKFIT
    Number of shells: 36
    Number of basis function: 92
    Number of Cartesian functions: 100
    Spherical Harmonics?: true
    Max angular momentum: 2

  Minimum eigenvalue in the overlap matrix is 2.9070603836E-01.
  Using Symmetric Orthogonalization.

  SCF Guess: Superposition of Atomic Densities via on-the-fly atomic UHF.

  ==> Iterations <==

                           Total Energy        Delta E     RMS |[F,P]|

   @DF-RHF iter   0:    -1.37192662229930   -1.37193e+00   1.08593e-02 
   @DF-RHF iter   1:    -1.56333637885088   -1.91410e-01   2.19882e-03 
   @DF-RHF iter   2:    -1.56771429773087   -4.37792e-03   1.01294e-03 DIIS
   @DF-RHF iter   3:    -1.56997516790466   -2.26087e-03   9.10847e-04 DIIS
   @DF-RHF iter   4:    -1.57060726329590   -6.32095e-04   8.82301e-04 DIIS
   @DF-RHF iter   5:    -1.57082254057445   -2.15277e-04   1.32259e-05 DIIS
   @DF-RHF iter   6:    -1.57082257706553   -3.64911e-08   3.82985e-06 DIIS
   @DF-RHF iter   7:    -1.57082258362824   -6.56271e-09   2.69072e-07 DIIS
   @DF-RHF iter   8:    -1.57082258366933   -4.10854e-11   8.57463e-09 DIIS

  ==> Post-Iterations <==

    Orbital Energies [Eh]
    ---------------------

    Doubly Occupied:                                                      

       1A     -0.296966     2A     -0.288092  

    Virtual:                                                              

       3A     -0.151515     4A     -0.141968     5A      0.583220  
       6A      0.608413     7A      0.644424     8A      0.679049  
       9A      1.463298    10A      1.463492    11A      1.463492  
      12A      1.463523    13A      1.463523    14A      1.463762  
      15A      1.464571    16A      1.464571    17A      1.464623  
      18A      1.464623    19A      1.465789    20A      1.465958  

    Final Occupation by Irrep:
              A 
    DOCC [     2 ]

  Energy converged.

  @DF-RHF Final Energy:    -1.57082258366933

   => Energetics <=

    Nuclear Repulsion Energy =              0.5879746762111112
    One-Electron Energy =                  -3.1474782565697339
    Two-Electron Energy =                   0.9886809966892955
    PCM Polarization Energy =               0.0000000000000000
    Total Energy =                         -1.5708225836693273

    Alert: EFP and PCM quantities not currently incorporated into SCF psivars.

Properties will be evaluated at   0.000000,   0.000000,   0.000000 [a0]

Properties computed using the SCF density matrix

  Nuclear Dipole Moment: [e a0]
     X:     0.0000      Y:     0.0000      Z:     0.0000

  Electronic Dipole Moment: [e a0]
     X:    -0.0000      Y:     0.0000      Z:    -0.0000

  Dipole Moment: [e a0]
     X:    -0.0000      Y:     0.0000      Z:    -0.0000     Total:     0.0000

  Dipole Moment: [D]
     X:    -0.0000      Y:     0.0000      Z:    -0.0000     Total:     0.0000


*** tstop() called on ed4 at Wed Nov 14 11:39:34 2018
Module time:
	user time   =       2.85 seconds =       0.05 minutes
	system time =       0.17 seconds =       0.00 minutes
	total time  =          1 seconds =       0.02 minutes
Total time:
	user time   =       2.85 seconds =       0.05 minutes
	system time =       0.17 seconds =       0.00 minutes
	total time  =          1 seconds =       0.02 minutes

Reading options from the V2RDM_DOCI block
Calling plugin v2rdm_doci.so.



*** tstart() called on ed4
*** at Wed Nov 14 11:39:34 2018

  ==> Boys Localizer <==

    Convergence =   1.000E-08
    Maxiter     =          50

    Iteration                   Metric       Residual
    @Boys    0   1.1942344904209380E-18              -
    @Boys    1   1.0759829561356221E+02   9.009813E+19
    @Boys    2   1.0759829561356221E+02   0.000000E+00

    Boys Localizer converged.

  ==> Boys Localizer <==

    Convergence =   1.000E-08
    Maxiter     =          50

    Iteration                   Metric       Residual
    @Boys    0   2.1891764807211565E-12              -
    @Boys    1   9.2386197445840730E+02   4.220135E+14
    @Boys    2   1.1395392445869550E+03   2.334518E-01
    @Boys    3   1.1912609829365174E+03   4.538829E-02
    @Boys    4   1.1958853929086811E+03   3.881945E-03
    @Boys    5   1.1965718019414753E+03   5.739756E-04
    @Boys    6   1.1965888933080216E+03   1.428361E-05
    @Boys    7   1.1965892971257383E+03   3.374741E-07
    @Boys    8   1.1965893759976559E+03   6.591394E-08
    @Boys    9   1.1965893926737899E+03   1.393639E-08
    @Boys   10   1.1965893983896383E+03   4.776783E-09

    Boys Localizer converged.

  ## MO coefficients (C) (Symmetry 0) ##
  Irrep: 1 Size: 20 x 20

                 1                   2                   3                   4                   5

    1    -0.01425203580163     0.30245941605440     0.01399958114405     0.28159053510052     0.00428649892791
    2    -0.02125879292177     0.45710520326045     0.01960592793163     0.47728660402707     0.00415862348432
    3     0.00010323186267     0.00327422232359     0.00115117446079     0.13302669437573     0.00028775801155
    4     0.00000000000000     0.00000000000000    -0.00000000899460    -0.00000325262064    -0.00000000783584
    5    -0.00000000000000    -0.00000000000000    -0.00000000600054    -0.00000573366721     0.00000000495169
    6     0.00857213782561     0.30234827973323     0.00881788544579    -0.28138926991106    -0.00927182773143
    7     0.02008035498393     0.45773559351310     0.03195723339080    -0.47727845919232     0.03139775620167
    8     0.00110969682979    -0.00321658760647     0.00256612669861     0.13515110870083     0.00382103424392
    9     0.00000000000000     0.00000000000000    -0.00000007212634     0.00001224185316    -0.00000007707246
   10    -0.00000000000000     0.00000000000000    -0.00000024150663     0.00004654117531    -0.00000023776820
   11     0.30234827972658     0.00857213782637    -0.28135289438351     0.00881813042741     0.86288140162591
   12     0.45773559350660     0.02008035498516    -0.47731380242862     0.03195614886227    -0.86840019017496
   13     0.00321658760652    -0.00110969682979    -0.13513290724055    -0.00256609256859     0.72534744063891
   14     0.00000000000000    -0.00000000000000     0.00002583872873    -0.00000012717495    -0.00254942967402
   15    -0.00000000000000    -0.00000000000000    -0.00004250580325     0.00000020133056     0.00536776780014
   16     0.30245941606114    -0.01425203580169     0.28159142679558     0.01399943086785     0.01300282569247
   17     0.45710520326699    -0.02125879292164     0.47728809579321     0.01960580088588     0.07049521719362
   18    -0.00327422232348    -0.00010323186269    -0.13302656604490    -0.00115115963451    -0.00981462604010
   19     0.00000000000000     0.00000000000000    -0.00000569155483    -0.00000000948680    -0.00000030310392
   20    -0.00000000000000     0.00000000000000     0.00001154232351     0.00000001452718     0.00000109469692

                 6                   7                   8                   9                  10

    1     0.85100650854207    -0.00159364643333     0.02284535420079    -0.00092563166383    -0.01301308383067
    2    -0.85687700468340    -0.00218772169444     0.00928490006504    -0.00139619363965    -0.07051203676282
    3     0.73328482967363    -0.00010504635667     0.00162525543060    -0.00006965130555    -0.00981885229875
    4    -0.00053899089934     0.00000000044083    -0.00000003303584     0.00000000044178    -0.00000022164336
    5    -0.00065113986117    -0.00000000056158     0.00000060549208     0.00000000041370     0.00000078654775
    6     0.01275122603365    -0.00007471306026    -0.57083224246646    -0.00099160181300    -0.86285543535091
    7     0.06980290424939    -0.00343311794060     0.48402638323640    -0.00085555752994     0.86840297417127
    8    -0.00971193928835    -0.00021636561843    -0.38666403598884    -0.00002409894015     0.72536776184255
    9    -0.00000044065364     0.00000000073310     0.16683150046671    -0.00000097845606    -0.00085094656101
   10    -0.00000130759663     0.00000000897193    -0.79997770559774    -0.00000011178461     0.00380226644477
   11    -0.00007499930719     0.01274420738716     0.00825585487395     0.02264577614101     0.00927137930631
   12    -0.00343335638349     0.06980076046762    -0.01602799321877     0.00864524336713    -0.03139864890838
   13     0.00021637133703     0.00971142312559     0.00208476620524     0.00155171461605     0.00382109786099
   14     0.00000000672447    -0.00000024050165     0.00000007969083    -0.00000179373540     0.00000003487338
   15    -0.00000000875727     0.00000056808274    -0.00000010285053     0.00000022813244    -0.00000005516177
   16    -0.00159391869768     0.85117384059112    -0.00007536156627    -0.57381210576498    -0.00428694595133
   17    -0.00218813142183    -0.85701909147445     0.00119259967698     0.48725926172991    -0.00415926450872
   18     0.00010506746179    -0.73317178724840    -0.00009173140836    -0.38473891404920     0.00028778104835
   19     0.00000000154283    -0.00025216013407    -0.00000019409938    -0.81135374749229    -0.00000000155098
   20    -0.00000000031517     0.00137430994915     0.00000092797868    -0.09339556321715     0.00000000696380

                11                  12                  13                  14                  15

    1     0.00006373479630     0.02294189790631    -0.00007877198984    -0.57429724831684    -0.00092909699557
    2    -0.00120629487884     0.00960764749435     0.00118917733352     0.48770034350011    -0.00140120176171
    3    -0.00009271287051     0.00166875998378     0.00009149625005     0.38478617182324    -0.00006989460392
    4    -0.00000090514147    -0.00000191176434    -0.00000015259778     0.45910070040033     0.00000000218153
    5    -0.00000034374733    -0.00000152227322    -0.00000094702231    -0.67519741711310    -0.00000000096416
    6    -0.00824626205039    -0.56806218754302     0.00826263078177     0.02265502644197    -0.00099361068045
    7     0.01597264294383     0.48107846074518    -0.01605176062661     0.00863446072739    -0.00086067008076
    8     0.00207819591912    -0.39101654027077    -0.00208767805848    -0.00154969470259    -0.00002433271387
    9     0.00000008527887     0.60918905386473     0.00000007010384     0.00000061028782     0.00000058220006
   10    -0.00000006409876     0.54326299649873     0.00000013536861    -0.00000113020467    -0.00000076163798
   11     0.56953544870103     0.00823115705926    -0.57146999532102    -0.00099211238711     0.02270256892471
   12    -0.48255850488687    -0.01591967491038     0.48467638840586    -0.00085525461347     0.00873328290762
   13    -0.38947951036396     0.00207173439095     0.38604547272898     0.00002408106823     0.00156521420310
   14     0.76324265413098    -0.00000006350709     0.12978570848098     0.00000055753162     0.00000096525080
   15     0.28972709912701    -0.00000013995891     0.80685206557501    -0.00000080668680    -0.00000047959366
   16    -0.02292161896081    -0.00005608362008     0.02283357660100    -0.00092576963198    -0.57406109044394
   17    -0.00949023058427     0.00121395050624     0.00922716762294    -0.00139645000016     0.48733323628644
   18     0.00165376967577    -0.00009326494074    -0.00161744668473     0.00006966639285    -0.38634342853085
   19    -0.00000128875613    -0.00000073956592    -0.00000053238343    -0.00000000060149     0.48663322994510
   20    -0.00000072884219    -0.00000065833493    -0.00000048269279     0.00000000011161    -0.65484651407773

                16                  17                  18                  19                  20

    1     0.57374967165170     0.57434811298520    -0.00092383372534     0.02296191796359    -0.00004395899129
    2    -0.48712532627622    -0.48778156416634    -0.00139366327519     0.00963234079983     0.00122684465602
    3    -0.38554576253393    -0.38444722300150    -0.00006953076902     0.00167308376757     0.00009416365249
    4    -0.35491729354550     0.81440774253687    -0.00000000032107     0.00000183015430    -0.00000076398366
    5    -0.73517311519184     0.06023715300400    -0.00000000131014    -0.00000044691231     0.00000062370286
    6    -0.02267116852869    -0.02264421836769    -0.00099109017627    -0.56826011602751     0.00821203481521
    7    -0.00869371790081    -0.00861155755862    -0.00085224027423     0.48121314573718    -0.01584457888468
    8     0.00155910315922     0.00154730859325    -0.00002392485530    -0.39124871027184    -0.00206263113753
    9    -0.00000101820482     0.00000238750625     0.00000039874771    -0.77527751343292     0.00000000437828
   10    -0.00000081403099     0.00000095311501     0.00000089159577     0.25472834113913     0.00000017538260
   11     0.00099242658188     0.00099176374454     0.02262435753375     0.00823427291641    -0.56611907314708
   12     0.00085824791103     0.00085398456023     0.00858176234330    -0.01592314665608     0.47904196718578
   13    -0.00002422860120    -0.00002398554648     0.00154219775450     0.00207222434749     0.39343051236833
   14    -0.00000041975418     0.00000096910119     0.00000011485425     0.00000007016460     0.63293745388009
   15    -0.00000086507257     0.00000006805882     0.00000148345274    -0.00000003065179    -0.51480009476164
   16     0.00092733433801     0.00092501310838    -0.57427345353915    -0.00005538683592     0.02299904450343
   17     0.00139863322705     0.00139536776725     0.48776576822957     0.00121534641876     0.00981665467468
   18    -0.00006976792037    -0.00006961242660    -0.38390911128352    -0.00009334783204    -0.00169738752934
   19    -0.00000000119535    -0.00000000092326     0.32387209253148     0.00000093310984    -0.00000144231489
   20    -0.00000000047935     0.00000000182764     0.74996761457058    -0.00000030577496     0.00000158021986





        *******************************************************
        *                                                     *
        *    v2RDM-DOCI                                       *
        *                                                     *
        *    A variational 2-RDM-driven approach to the       *
        *    doubles only configuration interaction method    *
        *                                                     *
        *******************************************************

  ==> Convergence parameters <==

        r_convergence:                      1.000e-06
        e_convergence:                      1.000e-05
        cg_convergence:                     1.000e-09
        maxiter:                              1000000
        cg_maxiter:                             10000

  ==> Active space details <==

        Number of frozen core orbitals:             0
        Number of restricted occupied orbitals:     0
        Number of active occupied orbitals:         2
        Number of active virtual orbitals:         18
        Number of restricted virtual orbitals:      0
        Number of frozen virtual orbitals:          0

        Irrep:              A 
 
        frozen_docc     [   0 ]
        restricted_docc [   0 ]
        active          [  20 ]
        restricted_uocc [   0 ]
        frozen_uocc     [   0 ]

  ==> Orbital optimization parameters <==

        1-step algorithm:                    true
        g_convergence:                  1.000e-04
        e_convergence:                  1.000e-06
        maximum iterations:                   500
        frequency:                            500
        active-active rotations:             true
        exact diagonal Hessian:              true
        number of DIIS vectors:                 0
        print iteration info:               false

  ==> Memory requirements <==

        D2:                          0.01 mb
        Q2:                          0.01 mb
        G2:                          0.02 mb

        Total number of variables:           2570
        Total number of constraints:         2213
        Total memory requirements:       14.95 mb

    ==> Transform three-electron integrals <==


        Time for integral transformation:     0.05 s

    Molecular point group: c1
    Full point group: D_inf_h

    Geometry (in Angstrom), charge = 0, multiplicity = 1:

       Center              X                  Y                   Z               Mass       
    ------------   -----------------  -----------------  -----------------  -----------------
         H            0.000000000000     0.000000000000    -5.850000000000     1.007825032070
         H            0.000000000000     0.000000000000    -1.950000000000     1.007825032070
         H            0.000000000000     0.000000000000     1.950000000000     1.007825032070
         H            0.000000000000     0.000000000000     5.850000000000     1.007825032070

  -AO BASIS SET INFORMATION:
    Name                   = CC-PVDZ
    Blend                  = CC-PVDZ
    Total number of shells = 12
    Number of primitives   = 20
    Number of AO           = 20
    Number of SO           = 20
    Maximum AM             = 1
    Spherical Harmonics    = TRUE

  -Contraction Scheme:
    Atom   Type   All Primitives // Shells:
   ------ ------ --------------------------
       1     H     4s 1p // 2s 1p 
       2     H     4s 1p // 2s 1p 
       3     H     4s 1p // 2s 1p 
       4     H     4s 1p // 2s 1p 

  ==> AO Basis Functions <==

    [ CC-PVDZ ]
    spherical
    ****
    H   1
    S   3 1.00
                        13.01000000           0.01968500
                         1.96200000           0.13797700
                         0.44460000           0.47814800
    S   1 1.00
                         0.12200000           1.00000000
    P   1 1.00
                         0.72700000           1.00000000
    ****
    H   2
    S   3 1.00
                        13.01000000           0.01968500
                         1.96200000           0.13797700
                         0.44460000           0.47814800
    S   1 1.00
                         0.12200000           1.00000000
    P   1 1.00
                         0.72700000           1.00000000
    ****
    H   3
    S   3 1.00
                        13.01000000           0.01968500
                         1.96200000           0.13797700
                         0.44460000           0.47814800
    S   1 1.00
                         0.12200000           1.00000000
    P   1 1.00
                         0.72700000           1.00000000
    ****
    H   4
    S   3 1.00
                        13.01000000           0.01968500
                         1.96200000           0.13797700
                         0.44460000           0.47814800
    S   1 1.00
                         0.12200000           1.00000000
    P   1 1.00
                         0.72700000           1.00000000
    ****


    reference energy:          -1.570822583669
    frozen core energy:         0.000000000000
    initial 2-RDM energy:      -2.016278808179

      oiter iiter        E(p)        E(d)      E gap)      mu     eps(p)     eps(d)
          0    18   11.785371  151.215422  139.430050   1.000   0.408359   0.251637
          1    17   10.766017    0.621694   10.144323   1.000   0.417807   0.018547
          2    16    6.664022    1.606158    5.057863   1.000   0.257317   0.027683
          3    14    1.832529    1.696871    0.135658   1.000   0.062815   0.032228
          4    16    0.249609    2.226626    1.977018   1.000   0.016077   0.022932
          5    16   -0.203640    2.120382    2.324022   1.000   0.023814   0.014613
          6    14   -0.517741    1.860088    2.377829   1.000   0.012807   0.013952
          7    14   -0.914270    1.669789    2.584059   1.000   0.013250   0.012720
          8    15   -1.285366    1.237663    2.523030   1.000   0.024693   0.010858
          9    17   -1.588256    0.578045    2.166302   1.000   0.027673   0.009202
         10    17   -1.856146   -0.178158    1.677988   1.000   0.024607   0.007525
         11    18   -2.090185   -1.058492    1.031693   1.000   0.020385   0.005725
         12    18   -2.316571   -1.926590    0.389981   1.000   0.022586   0.004653
         13    17   -2.450906   -2.571603    0.120697   1.000   0.024907   0.004390
         14    16   -2.471041   -2.971957    0.500916   1.000   0.024202   0.004763
         15    17   -2.401915   -3.151167    0.749252   1.000   0.020774   0.005179
         16    14   -2.260437   -3.156378    0.895941   1.000   0.015229   0.005370
         17    15   -2.063372   -3.033048    0.969676   1.000   0.008341   0.005302
         18    15   -1.893722   -2.819241    0.925519   1.000   0.004702   0.004771
         19    14   -1.713810   -2.565771    0.851961   1.000   0.005865   0.003702
         20    18   -1.563417   -2.251674    0.688257   1.000   0.009202   0.002456
         21    18   -1.474624   -1.905731    0.431107   1.000   0.011259   0.001404
         22    17   -1.460492   -1.577357    0.116865   1.000   0.011317   0.001274
         23    17   -1.514452   -1.321195    0.193256   1.000   0.009469   0.002022
         24    18   -1.611038   -1.235955    0.375083   1.000   0.006477   0.002469
         25    16   -1.727961   -1.239013    0.488948   1.000   0.002957   0.002568
         26    15   -1.844631   -1.254564    0.590068   1.000   0.001069   0.002395
         27    16   -1.941883   -1.317956    0.623928   1.000   0.003519   0.001983
         28    16   -2.006332   -1.437314    0.569019   1.000   0.005282   0.001403
         29    18   -2.030497   -1.635219    0.395278   1.000   0.005939   0.000709
         30    18   -2.018211   -1.837502    0.180709   1.000   0.005578   0.000382
         31    17   -1.979416   -2.007943    0.028527   1.000   0.004460   0.000787
         32    18   -1.926515   -2.125197    0.198682   1.000   0.002921   0.001144
         33    14   -1.871146   -2.181772    0.310627   1.000   0.001300   0.001313
         34    14   -1.822186   -2.180900    0.358714   1.000   0.000470   0.001295
         35    18   -1.785081   -2.132720    0.347640   1.000   0.001502   0.001121
         36    17   -1.762125   -2.051078    0.288952   1.000   0.002259   0.000839
         37    18   -1.753191   -1.951385    0.198194   1.000   0.002598   0.000522
         38    18   -1.756523   -1.848976    0.092453   1.000   0.002546   0.000316
         39    17   -1.769413   -1.757670    0.011743   1.000   0.002174   0.000412
         40    17   -1.788691   -1.688369    0.100322   1.000   0.001584   0.000597
         41    15   -1.811094   -1.647900    0.163194   1.000   0.000889   0.000715
         42    15   -1.833541   -1.638386    0.195155   1.000   0.000278   0.000738
         43    18   -1.853380   -1.657268    0.196112   1.000   0.000556   0.000673
         44    17   -1.868591   -1.698181    0.170410   1.000   0.001015   0.000545
         45    18   -1.877938   -1.752322    0.125616   1.000   0.001301   0.000397
         46    18   -1.881035   -1.810106    0.070929   1.000   0.001387   0.000294
         47    17   -1.878315   -1.862739    0.015576   1.000   0.001289   0.000301
         48    17   -1.870895   -1.903443    0.032548   1.000   0.001044   0.000372
         49    15   -1.860368   -1.928180    0.067812   1.000   0.000709   0.000433
         50    15   -1.848546   -1.935813    0.087267   1.000   0.000367   0.000453
         51    15   -1.837197   -1.927829    0.090632   1.000   0.000246   0.000432
         52    17   -1.827815   -1.907704    0.079889   1.000   0.000449   0.000381
         53    16   -1.821445   -1.880065    0.058620   1.000   0.000632   0.000319
         54    18   -1.818594   -1.849893    0.031298   1.000   0.000717   0.000274
         55    18   -1.819224   -1.821745    0.002521   1.000   0.000697   0.000265
         56    17   -1.822820   -1.799213    0.023607   1.000   0.000590   0.000284
         57    14   -1.828520   -1.784569    0.043951   1.000   0.000427   0.000308
         58    14   -1.835280   -1.778678    0.056603   1.000   0.000260   0.000319
         59    15   -1.842045   -1.781063    0.060982   1.000   0.000202   0.000314
         60    15   -1.847894   -1.790194    0.057701   1.000   0.000294   0.000295
         61    14   -1.852160   -1.803855    0.048305   1.000   0.000397   0.000271
         62    15   -1.854484   -1.819528    0.034956   1.000   0.000455   0.000253
         63    15   -1.854832   -1.834796    0.020036   1.000   0.000458   0.000246
         64    15   -1.853452   -1.847646    0.005806   1.000   0.000412   0.000248
         65    15   -1.850800   -1.856684    0.005884   1.000   0.000335   0.000255
         66    15   -1.847450   -1.861239    0.013790   1.000   0.000250   0.000259
         67    15   -1.843991   -1.861344    0.017353   1.000   0.000194   0.000257
         68    14   -1.840944   -1.857633    0.016689   1.000   0.000193   0.000251
         69    15   -1.838698   -1.851173    0.012476   1.000   0.000223   0.000242
         70    15   -1.837470   -1.843250    0.005780   1.000   0.000249   0.000234
         71    15   -1.837306   -1.835170    0.002136   1.000   0.000255   0.000229
         72    15   -1.838093   -1.828073    0.010020   1.000   0.000240   0.000228
         73    15   -1.839603   -1.822806    0.016798   1.000   0.000214   0.000229
         74    15   -1.841540   -1.819844    0.021697   1.000   0.000189   0.000229
         75    12   -1.843593   -1.819250    0.024343   1.000   0.000179   0.000228
         76    15   -1.845479   -1.820900    0.024579   1.000   0.000188   0.000225
         77    14   -1.846978   -1.824094    0.022885   1.000   0.000204   0.000221
         78    15   -1.847959   -1.828298    0.019661   1.000   0.000218   0.000217
         79    15   -1.848378   -1.832780    0.015597   1.000   0.000223   0.000214
         80    14   -1.848274   -1.836898    0.011376   1.000   0.000218   0.000212
         81    15   -1.847753   -1.840149    0.007604   1.000   0.000206   0.000211
         82    15   -1.846964   -1.842225    0.004738   1.000   0.000192   0.000210
         83    14   -1.846067   -1.843020    0.003047   1.000   0.000180   0.000208
         84    12   -1.845216   -1.842624    0.002593   1.000   0.000173   0.000206
         85    15   -1.844537   -1.841258    0.003279   1.000   0.000172   0.000204
         86    15   -1.844112   -1.839287    0.004825   1.000   0.000172   0.000202
         87    14   -1.843976   -1.837065    0.006912   1.000   0.000173   0.000199
         88    15   -1.844122   -1.834952    0.009170   1.000   0.000172   0.000198
         89    14   -1.844503   -1.833237    0.011266   1.000   0.000170   0.000196
         90    15   -1.845047   -1.832115    0.012932   1.000   0.000168   0.000195
         91    14   -1.845669   -1.831653    0.014017   1.000   0.000168   0.000193
         92    15   -1.846287   -1.831891    0.014396   1.000   0.000169   0.000191
         93    15   -1.846829   -1.832628    0.014201   1.000   0.000172   0.000189
         94    14   -1.847245   -1.833760    0.013485   1.000   0.000174   0.000188
         95    15   -1.847508   -1.835074    0.012435   1.000   0.000175   0.000186
         96    15   -1.847617   -1.836378    0.011239   1.000   0.000175   0.000184
         97    14   -1.847590   -1.837507    0.010083   1.000   0.000173   0.000182
         98    15   -1.847463   -1.838345    0.009118   1.000   0.000171   0.000181
         99    15   -1.847279   -1.838832    0.008446   1.000   0.000168   0.000179
        100    14   -1.847082   -1.838965    0.008117   1.000   0.000166   0.000178
        101    12   -1.846913   -1.838816    0.008097   1.000   0.000164   0.000176
        102    12   -1.846803   -1.838352    0.008451   1.000   0.000163   0.000174
        103    15   -1.846768   -1.837870    0.008897   1.000   0.000163   0.000173
        104    15   -1.846813   -1.837317    0.009496   1.000   0.000162   0.000171
        105    12   -1.846931   -1.836815    0.010116   1.000   0.000162   0.000170
        106    12   -1.847106   -1.836526    0.010580   1.000   0.000161   0.000168
        107    12   -1.847315   -1.836383    0.010932   1.000   0.000161   0.000167
        108    14   -1.847534   -1.836353    0.011182   1.000   0.000161   0.000165
        109    15   -1.847742   -1.836583    0.011160   1.000   0.000162   0.000164
        110    15   -1.847921   -1.836918    0.011003   1.000   0.000162   0.000162
        111    14   -1.848060   -1.837334    0.010726   1.000   0.000162   0.000161
        112    15   -1.848155   -1.837776    0.010379   1.000   0.000162   0.000159
        113    15   -1.848207   -1.838192    0.010015   1.000   0.000161   0.000158
        114    14   -1.848225   -1.838542    0.009683   1.000   0.000161   0.000156
        115    15   -1.848219   -1.838801    0.009419   1.000   0.000160   0.000155
        116    15   -1.848203   -1.838959    0.009244   1.000   0.000159   0.000153
        117    14   -1.848189   -1.839023    0.009166   1.000   0.000158   0.000152
        118    15   -1.848185   -1.839009    0.009176   1.000   0.000158   0.000150
        119    15   -1.848201   -1.838945    0.009255   1.000   0.000157   0.000149
        120    14   -1.848237   -1.838860    0.009378   1.000   0.000157   0.000148
        121    14   -1.848295   -1.838781    0.009514   1.000   0.000156   0.000146
        122    15   -1.848371   -1.838729    0.009643   1.000   0.000156   0.000145
        123    15   -1.848460   -1.838725    0.009735   1.000   0.000156   0.000144
        124    14   -1.848554   -1.838772    0.009782   1.000   0.000156   0.000142
        125    14   -1.848647   -1.838870    0.009777   1.000   0.000155   0.000141
        126    14   -1.848734   -1.839011    0.009723   1.000   0.000155   0.000140
        127    15   -1.848810   -1.839182    0.009628   1.000   0.000155   0.000138
        128    15   -1.848874   -1.839369    0.009505   1.000   0.000155   0.000137
        129    14   -1.848925   -1.839555    0.009369   1.000   0.000154   0.000136
        130    15   -1.848964   -1.839729    0.009235   1.000   0.000154   0.000134
        131    15   -1.848994   -1.839880    0.009115   1.000   0.000154   0.000133
        132    14   -1.849019   -1.840003    0.009016   1.000   0.000153   0.000132
        133    15   -1.849042   -1.840098    0.008944   1.000   0.000153   0.000131
        134    15   -1.849066   -1.840168    0.008898   1.000   0.000152   0.000129
        135    14   -1.849094   -1.840219    0.008874   1.000   0.000152   0.000128
        136    15   -1.849127   -1.840260    0.008867   1.000   0.000151   0.000127
        137    15   -1.849165   -1.840298    0.008867   1.000   0.000151   0.000126
        138    14   -1.849209   -1.840341    0.008869   1.000   0.000151   0.000124
        139    14   -1.849257   -1.840393    0.008864   1.000   0.000151   0.000123
        140    15   -1.849307   -1.840459    0.008848   1.000   0.000150   0.000122
        141    15   -1.849357   -1.840540    0.008817   1.000   0.000150   0.000121
        142    14   -1.849406   -1.840634    0.008772   1.000   0.000150   0.000120
        143    14   -1.849452   -1.840737    0.008715   1.000   0.000149   0.000119
        144    14   -1.849494   -1.840848    0.008647   1.000   0.000149   0.000117
        145    15   -1.849533   -1.840959    0.008573   1.000   0.000149   0.000116
        146    15   -1.849567   -1.841069    0.008498   1.000   0.000148   0.000115
        147    14   -1.849598   -1.841174    0.008424   1.000   0.000148   0.000114
        148    15   -1.849626   -1.841270    0.008356   1.000   0.000148   0.000113
        149    14   -1.849653   -1.841359    0.008294   1.000   0.000147   0.000112
        150    15   -1.849680   -1.841440    0.008240   1.000   0.000147   0.000111
        151    15   -1.849707   -1.841514    0.008193   1.000   0.000147   0.000110
        152    14   -1.849734   -1.841584    0.008151   1.000   0.000146   0.000109
        153    15   -1.849763   -1.841651    0.008112   1.000   0.000146   0.000107
        154    14   -1.849793   -1.841718    0.008075   1.000   0.000146   0.000106
        155    15   -1.849824   -1.841786    0.008037   1.000   0.000146   0.000105
        156    15   -1.849855   -1.841858    0.007997   1.000   0.000145   0.000104
        157    14   -1.849887   -1.841934    0.007953   1.000   0.000145   0.000103
        158    14   -1.849917   -1.842013    0.007904   1.000   0.000145   0.000102
        159    15   -1.849947   -1.842094    0.007853   1.000   0.000144   0.000101
        160    15   -1.849976   -1.842178    0.007798   1.000   0.000144   0.000100
        161    14   -1.850003   -1.842263    0.007740   1.000   0.000144   0.000099
        162    15   -1.850029   -1.842347    0.007682   1.000   0.000143   0.000098
        163    14   -1.850054   -1.842431    0.007623   1.000   0.000143   0.000097
        164    15   -1.850077   -1.842511    0.007566   1.000   0.000143   0.000096
        165    15   -1.850099   -1.842589    0.007510   1.000   0.000143   0.000095
        166    14   -1.850121   -1.842665    0.007457   1.000   0.000142   0.000094
        167    15   -1.850143   -1.842738    0.007405   1.000   0.000142   0.000093
        168    14   -1.850164   -1.842809    0.007356   1.000   0.000142   0.000093
        169    15   -1.850186   -1.842878    0.007308   1.000   0.000141   0.000092
        170    15   -1.850207   -1.842947    0.007260   1.000   0.000141   0.000091
        171    14   -1.850229   -1.843016    0.007213   1.000   0.000141   0.000090
        172    15   -1.850250   -1.843085    0.007165   1.000   0.000140   0.000089
        173    14   -1.850272   -1.843155    0.007117   1.000   0.000140   0.000088
        174    15   -1.850293   -1.843225    0.007068   1.000   0.000140   0.000087
        175    15   -1.850313   -1.843296    0.007017   1.000   0.000140   0.000086
        176    14   -1.850333   -1.843368    0.006966   1.000   0.000139   0.000085
        177    15   -1.850353   -1.843439    0.006914   1.000   0.000139   0.000084
        178    14   -1.850371   -1.843510    0.006861   1.000   0.000139   0.000084
        179    15   -1.850389   -1.843580    0.006810   1.000   0.000138   0.000083
        180    15   -1.850407   -1.843650    0.006757   1.000   0.000138   0.000082
        181    14   -1.850424   -1.843718    0.006706   1.000   0.000138   0.000081
        182    15   -1.850440   -1.843786    0.006655   1.000   0.000137   0.000080
        183    14   -1.850457   -1.843852    0.006604   1.000   0.000137   0.000079
        184    15   -1.850473   -1.843917    0.006555   1.000   0.000137   0.000079
        185    15   -1.850488   -1.843982    0.006506   1.000   0.000137   0.000078
        186    14   -1.850504   -1.844046    0.006458   1.000   0.000136   0.000077
        187    14   -1.850519   -1.844109    0.006410   1.000   0.000136   0.000076
        188    15   -1.850534   -1.844172    0.006362   1.000   0.000136   0.000075
        189    15   -1.850549   -1.844235    0.006314   1.000   0.000135   0.000075
        190    14   -1.850564   -1.844298    0.006266   1.000   0.000135   0.000074
        191    15   -1.850578   -1.844360    0.006218   1.000   0.000135   0.000073
        192    15   -1.850592   -1.844422    0.006170   1.000   0.000135   0.000072
        193    14   -1.850606   -1.844484    0.006121   1.000   0.000134   0.000072
        194    15   -1.850619   -1.844546    0.006073   1.000   0.000134   0.000071
        195    15   -1.850632   -1.844607    0.006025   1.000   0.000134   0.000070
        196    14   -1.850644   -1.844668    0.005977   1.000   0.000133   0.000069
        197    15   -1.850657   -1.844727    0.005929   1.000   0.000133   0.000069
        198    14   -1.850669   -1.844787    0.005882   1.000   0.000133   0.000068
        199    15   -1.850680   -1.844845    0.005835   1.000   0.000133   0.000067
        200    15   -1.850692   -1.844904    0.005788   1.000   0.000132   0.000066
        201    14   -1.850703   -1.844961    0.005742   1.000   0.000132   0.000066
        202    15   -1.850714   -1.845018    0.005696   1.000   0.000132   0.000065
        203    15   -1.850713   -1.845225    0.005488   1.000   0.000131   0.000064
        204    12   -1.850696   -1.845564    0.005132   1.000   0.000131   0.000064
        205    12   -1.850685   -1.845678    0.005007   1.000   0.000130   0.000063
        206    15   -1.850679   -1.845722    0.004957   1.000   0.000130   0.000062
        207    15   -1.850673   -1.845687    0.004986   1.000   0.000129   0.000062
        208    14   -1.850663   -1.845650    0.005013   1.000   0.000129   0.000061
        209    15   -1.850627   -1.845909    0.004718   1.000   0.000129   0.000060
        210    15   -1.850599   -1.845930    0.004669   1.000   0.000128   0.000060
        211    14   -1.850583   -1.845875    0.004708   1.000   0.000128   0.000059
        212    15   -1.850576   -1.845773    0.004803   1.000   0.000127   0.000058
        213    15   -1.850578   -1.845664    0.004914   1.000   0.000127   0.000058
        214    14   -1.850588   -1.845577    0.005011   1.000   0.000127   0.000057
        215    15   -1.850604   -1.845526    0.005078   1.000   0.000127   0.000057
        216    15   -1.850626   -1.845517    0.005109   1.000   0.000126   0.000056
        217    14   -1.850653   -1.845548    0.005105   1.000   0.000126   0.000055
        218    15   -1.850683   -1.845612    0.005071   1.000   0.000126   0.000055
        219    15   -1.850712   -1.845703    0.005009   1.000   0.000126   0.000054
        220    14   -1.850739   -1.845813    0.004926   1.000   0.000126   0.000054
        221    15   -1.850761   -1.845931    0.004830   1.000   0.000125   0.000053
        222    15   -1.850776   -1.846050    0.004726   1.000   0.000125   0.000053
        223    14   -1.850783   -1.846160    0.004623   1.000   0.000125   0.000052
        224    14   -1.850783   -1.846256    0.004527   1.000   0.000125   0.000051
        225    15   -1.850777   -1.846334    0.004443   1.000   0.000124   0.000051
        226    15   -1.850768   -1.846392    0.004376   1.000   0.000124   0.000050
        227    14   -1.850759   -1.846431    0.004327   1.000   0.000124   0.000050
        228    15   -1.850750   -1.846454    0.004296   1.000   0.000123   0.000049
        229    15   -1.850746   -1.846467    0.004279   1.000   0.000123   0.000049
        230    14   -1.850746   -1.846473    0.004273   1.000   0.000123   0.000048
        231    15   -1.850751   -1.846478    0.004272   1.000   0.000123   0.000048
        232    15   -1.850760   -1.846488    0.004272   1.000   0.000122   0.000047
        233    14   -1.850772   -1.846505    0.004267   1.000   0.000122   0.000047
        234    15   -1.850786   -1.846532    0.004254   1.000   0.000122   0.000046
        235    15   -1.850800   -1.846570    0.004231   1.000   0.000122   0.000046
        236    14   -1.850814   -1.846617    0.004197   1.000   0.000121   0.000045
        237    15   -1.850826   -1.846672    0.004153   1.000   0.000121   0.000045
        238    15   -1.850835   -1.846733    0.004102   1.000   0.000121   0.000044
        239    14   -1.850842   -1.846796    0.004046   1.000   0.000121   0.000044
        240    15   -1.850846   -1.846858    0.003988   1.000   0.000121   0.000043
        241    15   -1.850849   -1.846917    0.003932   1.000   0.000120   0.000043
        242    14   -1.850849   -1.846971    0.003879   1.000   0.000120   0.000042
        243    15   -1.850849   -1.847018    0.003831   1.000   0.000120   0.000042
        244    15   -1.850849   -1.847059    0.003790   1.000   0.000119   0.000041
        245    14   -1.850849   -1.847094    0.003755   1.000   0.000119   0.000041
        246    15   -1.850850   -1.847124    0.003726   1.000   0.000119   0.000040
        247    14   -1.850851   -1.847151    0.003701   1.000   0.000119   0.000040
        248    15   -1.850854   -1.847176    0.003679   1.000   0.000118   0.000039
        249    17   -1.850859   -1.847201    0.003658   1.000   0.000118   0.000039
        250    14   -1.850864   -1.847228    0.003636   1.000   0.000118   0.000038
        251    14   -1.850869   -1.847257    0.003612   1.000   0.000118   0.000038
        252    15   -1.850875   -1.847290    0.003586   1.000   0.000117   0.000038
        253    15   -1.850881   -1.847325    0.003556   1.000   0.000117   0.000037
        254    14   -1.850887   -1.847364    0.003523   1.000   0.000117   0.000037
        255    16   -1.850892   -1.847404    0.003488   1.000   0.000117   0.000036
        256    15   -1.850896   -1.847445    0.003451   1.000   0.000117   0.000036
        257    15   -1.850899   -1.847486    0.003413   1.000   0.000116   0.000036
        258    15   -1.850902   -1.847527    0.003375   1.000   0.000116   0.000035
        259    14   -1.850904   -1.847566    0.003338   1.000   0.000116   0.000035
        260    15   -1.850906   -1.847603    0.003303   1.000   0.000116   0.000034
        261    15   -1.850907   -1.847637    0.003270   1.000   0.000115   0.000034
        262    14   -1.850908   -1.847670    0.003238   1.000   0.000115   0.000034
        263    15   -1.850910   -1.847700    0.003209   1.000   0.000115   0.000033
        264    15   -1.850911   -1.847729    0.003182   1.000   0.000115   0.000033
        265    14   -1.850913   -1.847757    0.003156   1.000   0.000114   0.000032
        266    16   -1.850915   -1.847785    0.003131   1.000   0.000114   0.000032
        267    15   -1.850918   -1.847812    0.003106   1.000   0.000114   0.000032
        268    14   -1.850921   -1.847840    0.003080   1.000   0.000114   0.000031
        269    15   -1.850923   -1.847869    0.003055   1.000   0.000113   0.000031
        270    15   -1.850926   -1.847898    0.003028   1.000   0.000113   0.000031
        271    14   -1.850929   -1.847928    0.003001   1.000   0.000113   0.000030
        272    15   -1.850932   -1.847959    0.002973   1.000   0.000113   0.000030
        273    15   -1.850934   -1.847990    0.002944   1.000   0.000112   0.000030
        274    14   -1.850936   -1.848021    0.002916   1.000   0.000112   0.000029
        275    15   -1.850938   -1.848051    0.002887   1.000   0.000112   0.000029
        276    15   -1.850940   -1.848081    0.002858   1.000   0.000112   0.000029
        277    14   -1.850941   -1.848111    0.002830   1.000   0.000112   0.000028
        278    15   -1.850942   -1.848139    0.002803   1.000   0.000111   0.000028
        279    15   -1.850943   -1.848167    0.002777   1.000   0.000111   0.000028
        280    14   -1.850944   -1.848193    0.002751   1.000   0.000111   0.000027
        281    15   -1.850945   -1.848219    0.002726   1.000   0.000111   0.000027
        282    17   -1.850947   -1.848245    0.002702   1.000   0.000110   0.000027
        283    14   -1.850948   -1.848270    0.002678   1.000   0.000110   0.000026
        284    14   -1.850949   -1.848294    0.002655   1.000   0.000110   0.000026
        285    15   -1.850950   -1.848319    0.002631   1.000   0.000110   0.000026
        286    16   -1.850952   -1.848344    0.002608   1.000   0.000110   0.000025
        287    14   -1.850953   -1.848368    0.002585   1.000   0.000109   0.000025
        288    14   -1.850955   -1.848393    0.002562   1.000   0.000109   0.000025
        289    15   -1.850956   -1.848418    0.002538   1.000   0.000109   0.000024
        290    15   -1.850957   -1.848442    0.002515   1.000   0.000109   0.000024
        291    14   -1.850958   -1.848467    0.002491   1.000   0.000108   0.000024
        292    15   -1.850959   -1.848491    0.002468   1.000   0.000108   0.000024
        293    15   -1.850960   -1.848515    0.002445   1.000   0.000108   0.000023
        294    14   -1.850961   -1.848539    0.002422   1.000   0.000108   0.000023
        295    16   -1.850962   -1.848562    0.002399   1.000   0.000108   0.000023
        296    16   -1.850962   -1.848585    0.002377   1.000   0.000107   0.000023
        297    14   -1.850963   -1.848607    0.002356   1.000   0.000107   0.000022
        298    14   -1.850963   -1.848629    0.002334   1.000   0.000107   0.000022
        299    16   -1.850964   -1.848651    0.002313   1.000   0.000107   0.000022
        300    15   -1.850964   -1.848672    0.002292   1.000   0.000106   0.000021
        301    14   -1.850965   -1.848693    0.002272   1.000   0.000106   0.000021
        302    17   -1.850966   -1.848714    0.002252   1.000   0.000106   0.000021
        303    14   -1.850966   -1.848734    0.002232   1.000   0.000106   0.000021
        304    15   -1.850967   -1.848755    0.002212   1.000   0.000106   0.000020
        305    17   -1.850967   -1.848775    0.002192   1.000   0.000105   0.000020
        306    14   -1.850968   -1.848795    0.002172   1.000   0.000105   0.000020
        307    15   -1.850968   -1.848815    0.002153   1.000   0.000105   0.000020
        308    15   -1.850969   -1.848835    0.002133   1.000   0.000105   0.000019
        309    14   -1.850969   -1.848855    0.002114   1.000   0.000105   0.000019
        310    15   -1.850969   -1.848874    0.002095   1.000   0.000104   0.000019
        311    15   -1.850969   -1.848893    0.002076   1.000   0.000104   0.000019
        312    14   -1.850970   -1.848912    0.002057   1.000   0.000104   0.000019
        313    16   -1.850970   -1.848931    0.002039   1.000   0.000104   0.000018
        314    14   -1.850970   -1.848949    0.002021   1.000   0.000104   0.000018
        315    16   -1.850970   -1.848968    0.002003   1.000   0.000103   0.000018
        316    16   -1.850970   -1.848985    0.001985   1.000   0.000103   0.000018
        317    14   -1.850970   -1.849003    0.001967   1.000   0.000103   0.000017
        318    16   -1.850970   -1.849020    0.001950   1.000   0.000103   0.000017
        319    16   -1.850970   -1.849038    0.001933   1.000   0.000102   0.000017
        320    14   -1.850970   -1.849054    0.001916   1.000   0.000102   0.000017
        321    15   -1.850970   -1.849071    0.001899   1.000   0.000102   0.000017
        322    15   -1.850970   -1.849088    0.001883   1.000   0.000102   0.000016
        323    14   -1.850970   -1.849104    0.001866   1.000   0.000102   0.000016
        324    16   -1.850970   -1.849121    0.001850   1.000   0.000101   0.000016
        325    15   -1.850970   -1.849137    0.001834   1.000   0.000101   0.000016
        326    14   -1.850970   -1.849153    0.001818   1.000   0.000101   0.000016
        327    15   -1.850970   -1.849168    0.001802   1.000   0.000101   0.000015
        328    17   -1.850970   -1.849184    0.001786   1.000   0.000101   0.000015
        329    14   -1.850970   -1.849199    0.001771   1.000   0.000100   0.000015
        330    16   -1.850970   -1.849214    0.001755   1.000   0.000100   0.000015
        331    15   -1.850969   -1.849229    0.001740   1.000   0.000100   0.000015
        332    14   -1.850969   -1.849244    0.001725   1.000   0.000100   0.000014
        333    15   -1.850969   -1.849258    0.001711   1.000   0.000100   0.000014
        334    15   -1.850969   -1.849273    0.001696   1.000   0.000099   0.000014
        335    14   -1.850968   -1.849287    0.001681   1.000   0.000099   0.000014
        336    16   -1.850968   -1.849301    0.001667   1.000   0.000099   0.000014
        337    16   -1.850968   -1.849315    0.001653   1.000   0.000099   0.000014
        338    14   -1.850967   -1.849328    0.001639   1.000   0.000099   0.000013
        339    17   -1.850967   -1.849342    0.001625   1.000   0.000099   0.000013
        340    15   -1.850967   -1.849355    0.001612   1.000   0.000098   0.000013
        341    14   -1.850966   -1.849368    0.001598   1.000   0.000098   0.000013
        342    16   -1.850966   -1.849381    0.001585   1.000   0.000098   0.000013
        343    15   -1.850965   -1.849394    0.001572   1.000   0.000098   0.000013
        344    14   -1.850965   -1.849406    0.001559   1.000   0.000098   0.000012
        345    15   -1.850965   -1.849419    0.001546   1.000   0.000097   0.000012
        346    15   -1.850964   -1.849431    0.001533   1.000   0.000097   0.000012
        347    14   -1.850964   -1.849443    0.001521   1.000   0.000097   0.000012
        348    15   -1.850963   -1.849455    0.001508   1.000   0.000097   0.000012
        349    15   -1.850963   -1.849467    0.001496   1.000   0.000097   0.000012
        350    14   -1.850962   -1.849479    0.001484   1.000   0.000096   0.000012
        351    16   -1.850962   -1.849490    0.001472   1.000   0.000096   0.000011
        352    15   -1.850961   -1.849501    0.001460   1.000   0.000096   0.000011
        353    14   -1.850961   -1.849512    0.001448   1.000   0.000096   0.000011
        354    15   -1.850960   -1.849523    0.001436   1.000   0.000096   0.000011
        355    16   -1.850959   -1.849534    0.001425   1.000   0.000096   0.000011
        356    14   -1.850959   -1.849545    0.001414   1.000   0.000095   0.000011
        357    14   -1.850958   -1.849556    0.001403   1.000   0.000095   0.000011
        358    16   -1.850958   -1.849566    0.001392   1.000   0.000095   0.000010
        359    17   -1.850957   -1.849576    0.001381   1.000   0.000095   0.000010
        360    14   -1.850956   -1.849587    0.001370   1.000   0.000095   0.000010
        361    16   -1.850956   -1.849597    0.001359   1.000   0.000094   0.000010
        362    16   -1.850955   -1.849606    0.001349   1.000   0.000094   0.000010
        363    14   -1.850954   -1.849616    0.001338   1.000   0.000094   0.000010
        364    16   -1.850954   -1.849626    0.001328   1.000   0.000094   0.000010
        365    16   -1.850953   -1.849635    0.001318   1.000   0.000094   0.000010
        366    14   -1.850952   -1.849645    0.001308   1.000   0.000094   0.000009
        367    16   -1.850952   -1.849654    0.001298   1.000   0.000093   0.000009
        368    17   -1.850951   -1.849663    0.001288   1.000   0.000093   0.000009
        369    14   -1.850950   -1.849672    0.001278   1.000   0.000093   0.000009
        370    16   -1.850949   -1.849681    0.001269   1.000   0.000093   0.000009
        371    16   -1.850949   -1.849689    0.001259   1.000   0.000093   0.000009
        372    14   -1.850948   -1.849698    0.001250   1.000   0.000093   0.000009
        373    15   -1.850947   -1.849706    0.001241   1.000   0.000092   0.000009
        374    15   -1.850946   -1.849715    0.001232   1.000   0.000092   0.000009
        375    14   -1.850946   -1.849723    0.001223   1.000   0.000092   0.000008
        376    16   -1.850945   -1.849731    0.001214   1.000   0.000092   0.000008
        377    16   -1.850944   -1.849739    0.001205   1.000   0.000092   0.000008
        378    14   -1.850943   -1.849747    0.001197   1.000   0.000092   0.000008
        379    16   -1.850943   -1.849754    0.001188   1.000   0.000091   0.000008
        380    16   -1.850942   -1.849762    0.001180   1.000   0.000091   0.000008
        381    14   -1.850941   -1.849769    0.001172   1.000   0.000091   0.000008
        382    16   -1.850940   -1.849777    0.001163   1.000   0.000091   0.000008
        383    16   -1.850939   -1.849784    0.001155   1.000   0.000091   0.000008
        384    14   -1.850938   -1.849791    0.001147   1.000   0.000091   0.000008
        385    16   -1.850938   -1.849798    0.001139   1.000   0.000090   0.000008
        386    16   -1.850937   -1.849805    0.001132   1.000   0.000090   0.000007
        387    14   -1.850936   -1.849812    0.001124   1.000   0.000090   0.000007
        388    16   -1.850935   -1.849819    0.001116   1.000   0.000090   0.000007
        389    16   -1.850934   -1.849825    0.001109   1.000   0.000090   0.000007
        390    14   -1.850933   -1.849832    0.001101   1.000   0.000090   0.000007
        391    16   -1.850932   -1.849838    0.001094   1.000   0.000089   0.000007
        392    16   -1.850931   -1.849844    0.001087   1.000   0.000089   0.000007
        393    14   -1.850931   -1.849851    0.001080   1.000   0.000089   0.000007
        394    16   -1.850930   -1.849857    0.001073   1.000   0.000089   0.000007
        395    16   -1.850929   -1.849863    0.001066   1.000   0.000089   0.000007
        396    14   -1.850928   -1.849869    0.001059   1.000   0.000089   0.000007
        397    16   -1.850927   -1.849874    0.001053   1.000   0.000088   0.000007
        398    16   -1.850926   -1.849880    0.001046   1.000   0.000088   0.000006
        399    14   -1.850925   -1.849886    0.001039   1.000   0.000088   0.000006
        400    17   -1.850924   -1.849891    0.001033   1.000   0.000088   0.000006
        401    16   -1.850923   -1.849897    0.001027   1.000   0.000088   0.000006
        402    14   -1.850922   -1.849902    0.001020   1.000   0.000088   0.000006
        403    17   -1.850921   -1.849907    0.001014   1.000   0.000088   0.000006
        404    16   -1.850920   -1.849912    0.001008   1.000   0.000087   0.000006
        405    14   -1.850919   -1.849918    0.001002   1.000   0.000087   0.000006
        406    16   -1.850919   -1.849923    0.000996   1.000   0.000087   0.000006
        407    16   -1.850918   -1.849927    0.000990   1.000   0.000087   0.000006
        408    14   -1.850917   -1.849932    0.000984   1.000   0.000087   0.000006
        409    16   -1.850916   -1.849937    0.000979   1.000   0.000087   0.000006
        410    16   -1.850915   -1.849942    0.000973   1.000   0.000086   0.000006
        411    14   -1.850914   -1.849946    0.000968   1.000   0.000086   0.000006
        412    16   -1.850913   -1.849951    0.000962   1.000   0.000086   0.000006
        413    16   -1.850912   -1.849955    0.000957   1.000   0.000086   0.000006
        414    14   -1.850911   -1.849959    0.000951   1.000   0.000086   0.000006
        415    16   -1.850910   -1.849964    0.000946   1.000   0.000086   0.000005
        416    17   -1.850909   -1.849968    0.000941   1.000   0.000086   0.000005
        417    14   -1.850908   -1.849972    0.000936   1.000   0.000085   0.000005
        418    16   -1.850907   -1.849976    0.000931   1.000   0.000085   0.000005
        419    16   -1.850906   -1.849980    0.000926   1.000   0.000085   0.000005
        420    14   -1.850905   -1.849984    0.000921   1.000   0.000085   0.000005
        421    16   -1.850904   -1.849987    0.000916   1.000   0.000085   0.000005
        422    16   -1.850903   -1.849991    0.000912   1.000   0.000085   0.000005
        423    14   -1.850902   -1.849995    0.000907   1.000   0.000085   0.000005
        424    16   -1.850901   -1.849998    0.000902   1.000   0.000084   0.000005
        425    16   -1.850900   -1.850002    0.000898   1.000   0.000084   0.000005
        426    14   -1.850899   -1.850005    0.000894   1.000   0.000084   0.000005
        427    16   -1.850898   -1.850009    0.000889   1.000   0.000084   0.000005
        428    16   -1.850897   -1.850012    0.000885   1.000   0.000084   0.000005
        429    14   -1.850896   -1.850015    0.000881   1.000   0.000084   0.000005
        430    16   -1.850895   -1.850018    0.000876   1.000   0.000084   0.000005
        431    17   -1.850894   -1.850021    0.000872   1.000   0.000083   0.000005
        432    14   -1.850893   -1.850024    0.000868   1.000   0.000083   0.000005
        433    16   -1.850891   -1.850027    0.000864   1.000   0.000083   0.000005
        434    17   -1.850890   -1.850030    0.000860   1.000   0.000083   0.000005
        435    14   -1.850889   -1.850033    0.000856   1.000   0.000083   0.000005
        436    16   -1.850888   -1.850036    0.000853   1.000   0.000083   0.000005
        437    17   -1.850887   -1.850038    0.000849   1.000   0.000083   0.000005
        438    14   -1.850886   -1.850041    0.000845   1.000   0.000082   0.000005
        439    17   -1.850885   -1.850044    0.000842   1.000   0.000082   0.000005
        440    16   -1.850884   -1.850046    0.000838   1.000   0.000082   0.000005
        441    14   -1.850883   -1.850049    0.000835   1.000   0.000082   0.000005
        442    17   -1.850882   -1.850051    0.000831   1.000   0.000082   0.000005
        443    16   -1.850881   -1.850053    0.000828   1.000   0.000082   0.000005
        444    14   -1.850880   -1.850056    0.000824   1.000   0.000082   0.000004
        445    16   -1.850879   -1.850058    0.000821   1.000   0.000081   0.000004
        446    16   -1.850878   -1.850060    0.000818   1.000   0.000081   0.000004
        447    14   -1.850877   -1.850062    0.000815   1.000   0.000081   0.000004
        448    16   -1.850876   -1.850064    0.000812   1.000   0.000081   0.000004
        449    17   -1.850875   -1.850066    0.000808   1.000   0.000081   0.000004
        450    14   -1.850874   -1.850068    0.000805   1.000   0.000081   0.000004
        451    16   -1.850872   -1.850070    0.000803   1.000   0.000081   0.000004
        452    17   -1.850871   -1.850072    0.000800   1.000   0.000081   0.000004
        453    14   -1.850870   -1.850074    0.000797   1.000   0.000080   0.000004
        454    17   -1.850869   -1.850075    0.000794   1.000   0.000080   0.000004
        455    17   -1.850868   -1.850077    0.000791   1.000   0.000080   0.000004
        456    14   -1.850867   -1.850079    0.000788   1.000   0.000080   0.000004
        457    16   -1.850866   -1.850080    0.000786   1.000   0.000080   0.000004
        458    16   -1.850865   -1.850082    0.000783   1.000   0.000080   0.000004
        459    14   -1.850864   -1.850083    0.000781   1.000   0.000080   0.000004
        460    17   -1.850863   -1.850085    0.000778   1.000   0.000080   0.000004
        461    16   -1.850862   -1.850086    0.000776   1.000   0.000079   0.000004
        462    14   -1.850861   -1.850088    0.000773   1.000   0.000079   0.000004
        463    16   -1.850860   -1.850089    0.000771   1.000   0.000079   0.000004
        464    17   -1.850858   -1.850090    0.000768   1.000   0.000079   0.000004
        465    14   -1.850857   -1.850091    0.000766   1.000   0.000079   0.000004
        466    16   -1.850856   -1.850093    0.000764   1.000   0.000079   0.000004
        467    16   -1.850855   -1.850094    0.000762   1.000   0.000079   0.000004
        468    14   -1.850854   -1.850095    0.000759   1.000   0.000079   0.000004
        469    16   -1.850853   -1.850096    0.000757   1.000   0.000078   0.000004
        470    17   -1.850852   -1.850097    0.000755   1.000   0.000078   0.000004
        471    14   -1.850851   -1.850098    0.000753   1.000   0.000078   0.000004
        472    16   -1.850850   -1.850099    0.000751   1.000   0.000078   0.000004
        473    16   -1.850849   -1.850100    0.000749   1.000   0.000078   0.000004
        474    14   -1.850848   -1.850100    0.000747   1.000   0.000078   0.000004
        475    16   -1.850846   -1.850101    0.000745   1.000   0.000078   0.000004
        476    17   -1.850845   -1.850102    0.000743   1.000   0.000078   0.000004
        477    14   -1.850844   -1.850103    0.000742   1.000   0.000077   0.000004
        478    16   -1.850843   -1.850103    0.000740   1.000   0.000077   0.000004
        479    16   -1.850842   -1.850104    0.000738   1.000   0.000077   0.000004
        480    14   -1.850841   -1.850105    0.000736   1.000   0.000077   0.000004
        481    16   -1.850840   -1.850105    0.000735   1.000   0.000077   0.000004
        482    16   -1.850839   -1.850106    0.000733   1.000   0.000077   0.000004
        483    14   -1.850838   -1.850106    0.000731   1.000   0.000077   0.000004
        484    16   -1.850837   -1.850107    0.000730   1.000   0.000077   0.000004
        485    16   -1.850836   -1.850107    0.000728   1.000   0.000076   0.000004
        486    14   -1.850834   -1.850108    0.000727   1.000   0.000076   0.000004
        487    16   -1.850833   -1.850108    0.000725   1.000   0.000076   0.000004
        488    16   -1.850832   -1.850108    0.000724   1.000   0.000076   0.000004
        489    14   -1.850831   -1.850109    0.000722   1.000   0.000076   0.000004
        490    16   -1.850830   -1.850109    0.000721   1.000   0.000076   0.000004
        491    16   -1.850829   -1.850109    0.000720   1.000   0.000076   0.000004
        492    14   -1.850828   -1.850109    0.000718   1.000   0.000076   0.000004
        493    16   -1.850827   -1.850110    0.000717   1.000   0.000076   0.000004
        494    16   -1.850826   -1.850110    0.000716   1.000   0.000075   0.000004
        495    14   -1.850824   -1.850110    0.000715   1.000   0.000075   0.000004
        496    16   -1.850823   -1.850110    0.000714   1.000   0.000075   0.000004
        497    17   -1.850822   -1.850110    0.000712   1.000   0.000075   0.000004
        498    16   -1.850821   -1.850110    0.000711   1.000   0.000075   0.000004
        499    16   -1.850820   -1.850110    0.000710   1.000   0.000075   0.000004

        ==> Orbital Optimization <==

            Orbital Optimization converged in 120 iterations 
            Total energy change: -1.258158e-01
            Final gradient norm: 9.925829e-05

        500    16   -1.976840   -1.850110    0.126730   1.000   0.000075   0.000004
        501    20   -2.024489   -2.213369    0.188880   1.000   0.023364   0.021680
        502    13   -1.980614   -2.678437    0.697822   1.000   0.015209   0.012873
        503    15   -1.887987   -2.777286    0.889298   1.000   0.009394   0.008849
        504    15   -1.835993   -2.501159    0.665166   1.000   0.006166   0.005689
        505    15   -1.789579   -2.132971    0.343392   1.000   0.006151   0.003802
        506    16   -1.760046   -1.900929    0.140883   1.000   0.006450   0.001706
        507    18   -1.762330   -1.737513    0.024817   1.000   0.005819   0.001731
        508    16   -1.795233   -1.618620    0.176613   1.000   0.004759   0.001783
        509    15   -1.851317   -1.549539    0.301779   1.000   0.003387   0.001683
        510    14   -1.919634   -1.522408    0.397226   1.000   0.001818   0.001733
        511    15   -1.988233   -1.533692    0.454540   1.000   0.000826   0.001724
        512    17   -2.046943   -1.578932    0.468011   1.000   0.001879   0.001477
        513    18   -2.083709   -1.717378    0.366330   1.000   0.002844   0.001003
        514    18   -2.095293   -1.901936    0.193358   1.000   0.003186   0.000506
        515    17   -2.086496   -2.063516    0.022980   1.000   0.002998   0.000428
        516    18   -2.064555   -2.179155    0.114599   1.000   0.002448   0.000634
        517    16   -2.036449   -2.242932    0.206483   1.000   0.001696   0.000799
        518    15   -2.007490   -2.260125    0.252636   1.000   0.000871   0.000878
        519    12   -1.981135   -2.241159    0.260024   1.000   0.000222   0.000865
        520    18   -1.959465   -2.196914    0.237449   1.000   0.000717   0.000762
        521    18   -1.943753   -2.138136    0.194383   1.000   0.001229   0.000593
        522    16   -1.934782   -2.073349    0.138567   1.000   0.001526   0.000413
        523    17   -1.932857   -2.010436    0.077579   1.000   0.001587   0.000315
        524    18   -1.937658   -1.956187    0.018529   1.000   0.001429   0.000361
        525    18   -1.948107   -1.916046    0.032062   1.000   0.001099   0.000454
        526    14   -1.962412   -1.893498    0.068914   1.000   0.000663   0.000516
        527    14   -1.978296   -1.889561    0.088735   1.000   0.000202   0.000525
        528    15   -1.993378   -1.902588    0.090790   1.000   0.000274   0.000484
        529    18   -2.005586   -1.928663    0.076923   1.000   0.000614   0.000412
        530    18   -2.013485   -1.962411    0.051073   1.000   0.000831   0.000335
        531    17   -2.016464   -1.997977    0.018487   1.000   0.000904   0.000288
        532    17   -2.014744   -2.030032    0.015288   1.000   0.000841   0.000289
        533    18   -2.009232   -2.054519    0.045287   1.000   0.000669   0.000320
        534    15   -2.001282   -2.069078    0.067796   1.000   0.000429   0.000348
        535    15   -1.992418   -2.073108    0.080689   1.000   0.000165   0.000356
        536    14   -1.984074   -2.067584    0.083511   1.000   0.000103   0.000343
        537    18   -1.977390   -2.054649    0.077259   1.000   0.000298   0.000315
        538    15   -1.973097   -2.037116    0.064018   1.000   0.000428   0.000284
        539    18   -1.971474   -2.018019    0.046546   1.000   0.000481   0.000262
        540    18   -1.972377   -2.000135    0.027759   1.000   0.000459   0.000257
        541    14   -1.975331   -1.985687    0.010357   1.000   0.000376   0.000263
        542    14   -1.979645   -1.976128    0.003517   1.000   0.000254   0.000272
        543    15   -1.984543   -1.972038    0.012505   1.000   0.000118   0.000276
        544    15   -1.989284   -1.973187    0.016096   1.000   0.000049   0.000271
        545    18   -1.993256   -1.978667    0.014589   1.000   0.000145   0.000261
        546    14   -1.996044   -1.987106    0.008938   1.000   0.000221   0.000248
        547    15   -1.997456   -1.996912    0.000544   1.000   0.000258   0.000238
        548    15   -1.997516   -2.006528    0.009012   1.000   0.000255   0.000233
        549    15   -1.996432   -2.014635    0.018204   1.000   0.000219   0.000233
        550    15   -1.994534   -2.020304    0.025769   1.000   0.000158   0.000234
        551    15   -1.992220   -2.023068    0.030848   1.000   0.000087   0.000234
        552    15   -1.989884   -2.022930    0.033046   1.000   0.000029   0.000232
        553    18   -1.987868   -2.020292    0.032425   1.000   0.000061   0.000227
        554    17   -1.986417   -2.015845    0.029428   1.000   0.000105   0.000222
        555    15   -1.985667   -2.010435    0.024768   1.000   0.000130   0.000217
        556    15   -1.985636   -2.004923    0.019287   1.000   0.000134   0.000213
        557    15   -1.986242   -2.000064    0.013822   1.000   0.000120   0.000211
        558    15   -1.987327   -1.996416    0.009089   1.000   0.000091   0.000210
        559    15   -1.988689   -1.994292    0.005603   1.000   0.000056   0.000209
        560    15   -1.990118   -1.993752    0.003634   1.000   0.000025   0.000207
        561    15   -1.991422   -1.994627    0.003204   1.000   0.000032   0.000204
        562    15   -1.992456   -1.996578    0.004122   1.000   0.000056   0.000200
        563    15   -1.993129   -1.999168    0.006039   1.000   0.000072   0.000197
        564    15   -1.993413   -2.001930    0.008518   1.000   0.000077   0.000195
        565    15   -1.993336   -2.004444    0.011108   1.000   0.000072   0.000193
        566    14   -1.992973   -2.006380    0.013407   1.000   0.000059   0.000191
        567    15   -1.992425   -2.007537    0.015112   1.000   0.000042   0.000189
        568    15   -1.991807   -2.007849    0.016042   1.000   0.000026   0.000187
        569    14   -1.991225   -2.007377    0.016152   1.000   0.000022   0.000185
        570    15   -1.990766   -2.006281    0.015515   1.000   0.000030   0.000183
        571    18   -1.990487   -2.004784    0.014297   1.000   0.000039   0.000180
        572    15   -1.990413   -2.003133    0.012720   1.000   0.000042   0.000178
        573    15   -1.990537   -2.001563    0.011026   1.000   0.000041   0.000176
        574    15   -1.990823   -2.000263    0.009439   1.000   0.000036   0.000174
        575    15   -1.991222   -1.999359    0.008137   1.000   0.000028   0.000172
        576    15   -1.991672   -1.998906    0.007234   1.000   0.000021   0.000171
        577    14   -1.992114   -1.998889    0.006775   1.000   0.000019   0.000169
        578    15   -1.992499   -1.999234    0.006735   1.000   0.000022   0.000167
        579    15   -1.992791   -1.999831    0.007040   1.000   0.000025   0.000165
        580    15   -1.992973   -2.000547    0.007575   1.000   0.000028   0.000163
        581    15   -1.993043   -2.001256    0.008213   1.000   0.000027   0.000161
        582    14   -1.993018   -2.001848    0.008829   1.000   0.000025   0.000159
        583    15   -1.992923   -2.002245    0.009322   1.000   0.000021   0.000158
        584    15   -1.992789   -2.002409    0.009619   1.000   0.000018   0.000156
        585    14   -1.992650   -2.002337    0.009688   1.000   0.000016   0.000154
        586    15   -1.992532   -2.002062    0.009530   1.000   0.000016   0.000152
        587    15   -1.992458   -2.001638    0.009180   1.000   0.000017   0.000151
        588    15   -1.992439   -2.001133    0.008694   1.000   0.000018   0.000149
        589    15   -1.992478   -2.000616    0.008138   1.000   0.000018   0.000147
        590    15   -1.992569   -2.000150    0.007581   1.000   0.000017   0.000146
        591    15   -1.992699   -1.999781    0.007082   1.000   0.000016   0.000144
        592    15   -1.992853   -1.999535    0.006682   1.000   0.000015   0.000143
        593    15   -1.993012   -1.999419    0.006406   1.000   0.000015   0.000141
        594    14   -1.993162   -1.999419    0.006258   1.000   0.000015   0.000140
        595    15   -1.993289   -1.999510    0.006221   1.000   0.000015   0.000138
        596    15   -1.993386   -1.999657    0.006271   1.000   0.000016   0.000137
        597    14   -1.993450   -1.999821    0.006371   1.000   0.000016   0.000135
        598    14   -1.993484   -1.999968    0.006484   1.000   0.000015   0.000134
        599    15   -1.993493   -2.000072    0.006578   1.000   0.000015   0.000132
        600    15   -1.993486   -2.000114    0.006628   1.000   0.000014   0.000131
        601    14   -1.993471   -2.000088    0.006617   1.000   0.000013   0.000129
        602    12   -1.993459   -2.000000    0.006541   1.000   0.000013   0.000128
        603    14   -1.993455   -1.999860    0.006405   1.000   0.000013   0.000126
        604    15   -1.993465   -1.999688    0.006223   1.000   0.000013   0.000125
        605    15   -1.993490   -1.999502    0.006012   1.000   0.000012   0.000124
        606    14   -1.993532   -1.999323    0.005791   1.000   0.000012   0.000122
        607    15   -1.993586   -1.999165    0.005580   1.000   0.000012   0.000121
        608    15   -1.993648   -1.999040    0.005392   1.000   0.000012   0.000120
        609    12   -1.993715   -1.998950    0.005235   1.000   0.000012   0.000118
        610    14   -1.993780   -1.998902    0.005122   1.000   0.000011   0.000117
        611    15   -1.993841   -1.998880    0.005039   1.000   0.000011   0.000116
        612    15   -1.993893   -1.998881    0.004988   1.000   0.000011   0.000115
        613    14   -1.993936   -1.998893    0.004957   1.000   0.000011   0.000113
        614    14   -1.993969   -1.998906    0.004937   1.000   0.000011   0.000112
        615    15   -1.993994   -1.998911    0.004917   1.000   0.000011   0.000111
        616    15   -1.994012   -1.998902    0.004889   1.000   0.000011   0.000110
        617    14   -1.994027   -1.998874    0.004847   1.000   0.000011   0.000109
        618    14   -1.994040   -1.998828    0.004787   1.000   0.000010   0.000107
        619    14   -1.994055   -1.998766    0.004711   1.000   0.000010   0.000106
        620    15   -1.994072   -1.998691    0.004618   1.000   0.000010   0.000105
        621    15   -1.994094   -1.998611    0.004517   1.000   0.000010   0.000104
        622    14   -1.994119   -1.998530    0.004410   1.000   0.000010   0.000103
        623    15   -1.994149   -1.998453    0.004304   1.000   0.000010   0.000102
        624    15   -1.994181   -1.998384    0.004204   1.000   0.000010   0.000101
        625    12   -1.994214   -1.998327    0.004112   1.000   0.000010   0.000100
        626    14   -1.994248   -1.998279    0.004031   1.000   0.000009   0.000098
        627    15   -1.994281   -1.998243    0.003962   1.000   0.000009   0.000097
        628    15   -1.994311   -1.998215    0.003903   1.000   0.000009   0.000096
        629    13   -1.994339   -1.998191    0.003853   1.000   0.000009   0.000095
        630    15   -1.994363   -1.998170    0.003807   1.000   0.000009   0.000094
        631    15   -1.994385   -1.998149    0.003764   1.000   0.000009   0.000093
        632    14   -1.994404   -1.998124    0.003720   1.000   0.000009   0.000092
        633    15   -1.994421   -1.998095    0.003674   1.000   0.000009   0.000091
        634    15   -1.994438   -1.998062    0.003624   1.000   0.000009   0.000090
        635    14   -1.994454   -1.998023    0.003569   1.000   0.000008   0.000089
        636    12   -1.994470   -1.997982    0.003512   1.000   0.000008   0.000088
        637    13   -1.994487   -1.997936    0.003448   1.000   0.000008   0.000087
        638    14   -1.994505   -1.997891    0.003385   1.000   0.000008   0.000086
        639    12   -1.994524   -1.997847    0.003322   1.000   0.000008   0.000086
        640    14   -1.994544   -1.997805    0.003260   1.000   0.000008   0.000085
        641    13   -1.994564   -1.997765    0.003201   1.000   0.000008   0.000084
        642    15   -1.994584   -1.997728    0.003144   1.000   0.000008   0.000083
        643    15   -1.994604   -1.997697    0.003093   1.000   0.000008   0.000082
        644    14   -1.994623   -1.997668    0.003045   1.000   0.000008   0.000081
        645    15   -1.994641   -1.997641    0.002999   1.000   0.000008   0.000080
        646    15   -1.994659   -1.997615    0.002957   1.000   0.000007   0.000079
        647    14   -1.994674   -1.997590    0.002916   1.000   0.000007   0.000078
[...]
         -1.101071171043       0.000000000000
         -1.130562003271       0.000000000000
         -1.140660683598       0.000000000000
         -1.150609605391       0.000000000000
         -1.168910149420       0.000000000000
         -1.193910687910       0.000000000000
         -1.221366318896       0.000000000000
         -1.244916606180       0.000000000000
         -1.259388145578       0.000000000000
         -1.293837552525       0.000000000000
         -1.632511133198       0.000000000000
         -1.606107101868       0.000000000000
         -1.590448250235       0.000000000000
         -1.560643270712       0.000000000000
         -1.576046024803       0.000000000000
         -1.538653277055       0.000000000000
         -1.510589325036       0.000000000000
         -1.325507982758       0.000000000000
         -1.341256165890       0.000000000000
         -1.474948567689       0.000000000000
         -1.713048698746       0.000000000000
         -1.739537066231       0.000000000000
         -1.992639487049       0.000000000000
         -1.991687383629       0.000000000000
         -1.438821396699       0.000000000000
         -1.770880833444       0.000000000000
         -1.783822623152       0.000000000000
         -1.790432266591       0.000000000000
         -1.809013255082       0.000000000000
         -1.971255334567       0.000000000000
         -1.820384392763       0.000000000000
         -1.827246493476       0.000000000000
         -1.830165682992       0.000000000000
         -1.834930807210       0.000000000000
         -1.837065509967       0.000000000000
         -1.853542849453       0.000000000000
         -1.845902539161       0.000000000000
         -1.847099399981       0.000000000000
         -1.894996459784       0.000000000000
         -1.883865274175       0.000000000000
         -1.963362105042       0.000000000000
         -1.961708161267       0.000000000000
         -1.962063913348       0.000000000000
         -1.962288033262       0.000000000000
         -1.962634270318       0.000000000000
         -1.962727878867       0.000000000000
         -1.877127735024       0.000000000000
         -1.869785882208       0.000000000000
         -1.870286976372       0.000000000000
         -1.873440989699       0.000000000000
         -1.872436440544       0.000000000000
         -1.872572627960       0.000000000000
         -1.872542412563       0.000000000000
         -1.942419882267       0.000000000000
         -1.937520525933       0.000000000000
         -1.941399302725       0.000000000000
         -1.938392572466       0.000000000000
         -1.938536477400       0.000000000000
         -1.939062934281       0.000000000000
         -1.939276019511       0.000000000000
         -1.939686995239       0.000000000000
         -1.939663476069       0.000000000000
         -1.939542949452       0.000000000000
         -1.939469481411       0.000000000000
         -1.939494689844       0.000000000000
         -1.389269490017       0.000000000000
         -1.390794564914       0.000000000000
         -1.422502619520       0.000000000000
          2.117293517843       0.000000000000
          0.676892418829       0.000000000000
          0.678139873297       0.000000000000
          0.679653382198       0.000000000000
          0.679436080807       0.000000000000
          1.017925099538       0.238801249853
<<<warning>>> excitation energy is complex:       1.017925099538 +       0.238801249853 I
          1.017925099538      -0.238801249853
<<<warning>>> excitation energy is complex:       1.017925099538 +      -0.238801249853 I
          0.772803567617       0.000000000000
          2.081596354305       0.000000000000
          0.823353399860       0.000000000000
          0.852388199062       0.000000000000
          0.876841493188       0.000000000000
          2.030507778044       0.000000000000
          0.913222201924       0.000000000000
          0.952947863778       0.000000000000
          0.934867835914       0.000000000000
          0.935788720782       0.000000000000
          0.940471310613       0.000000000000
          0.943469051553       0.000000000000
          0.980138653743       0.000000000000
          0.979242466712       0.000000000000
          0.996824882255       0.000000000000
          1.023506396500       0.000000000000
          1.046529925577       0.000000000000
          1.040799621805       0.000000000000
          1.042843201380       0.000000000000
          1.063313067732       0.000000000000
          1.065001331773       0.000000000000
          1.073915625514       0.000000000000
          1.101071171043       0.000000000000
          1.104025375997       0.000000000000
          1.130562003257       0.000000000000
          1.140660683608       0.000000000000
          1.150609605394       0.000000000000
          1.168910149413       0.000000000000
          1.193910687905       0.000000000000
          1.221366318900       0.000000000000
          1.244916606182       0.000000000000
          1.259388145589       0.000000000000
          1.293837552561       0.000000000000
          1.325507982781       0.000000000000
          1.341256166031       0.000000000000
          1.632511133207       0.000000000000
          1.606107101848       0.000000000000
          1.590448250233       0.000000000000
          1.576046024813       0.000000000000
          1.560643270719       0.000000000000
          1.538653277051       0.000000000000
          1.510589325089       0.000000000000
          1.474948567656       0.000000000000
          1.713048698735       0.000000000000
          1.739537066236       0.000000000000
          1.438821396693       0.000000000000
          1.992639487059       0.000000000000
          1.991687383641       0.000000000000
          1.389269490013       0.000000000000
          1.390794564892       0.000000000000
          1.422502619523       0.000000000000
          1.770880833452       0.000000000000
          1.783822623147       0.000000000000
          1.790432266578       0.000000000000
          1.809013255089       0.000000000000
          1.971255334569       0.000000000000
          1.820384392763       0.000000000000
          1.827246493477       0.000000000000
          1.830165682991       0.000000000000
          1.837065509962       0.000000000000
          1.834930807211       0.000000000000
          1.845902539163       0.000000000000
          1.847099399981       0.000000000000
          1.853542849454       0.000000000000
          1.894996459780       0.000000000000
          1.963362105042       0.000000000000
          1.961708161266       0.000000000000
          1.962727878867       0.000000000000
          1.962634270317       0.000000000000
          1.962063913348       0.000000000000
          1.962288033262       0.000000000000
          1.883865274175       0.000000000000
          1.877127735020       0.000000000000
          1.870286976372       0.000000000000
          1.869785882208       0.000000000000
          1.873440989699       0.000000000000
          1.872436440544       0.000000000000
          1.872542412563       0.000000000000
          1.872572627960       0.000000000000
          1.942419882267       0.000000000000
          1.941399302724       0.000000000000
          1.937520525933       0.000000000000
          1.938392572466       0.000000000000
          1.938536477400       0.000000000000
          1.939062934281       0.000000000000
          1.939276019511       0.000000000000
          1.939663476069       0.000000000000
          1.939686995239       0.000000000000
          1.939542949452       0.000000000000
          1.939494689844       0.000000000000
          1.939469481411       0.000000000000
          1.412246641111       0.000000000000
          1.412279693265       0.000000000000
          1.407902728451       0.000000000000
          1.407905763432       0.000000000000
          1.410890295631       0.000000000000
          1.410817662370       0.000000000000
          1.410856683131       0.000000000000
          1.410836866198       0.000000000000
          1.408616960189       0.000000000000
          1.408638897891       0.000000000000
          1.408630986859       0.000000000000
          1.408628209550       0.000000000000
         -1.412279693265       0.000000000000
         -1.412246641111       0.000000000000
         -1.407905763432       0.000000000000
         -1.407902728451       0.000000000000
         -1.410817662370       0.000000000000
         -1.410890295631       0.000000000000
         -1.410836866198       0.000000000000
         -1.410856683131       0.000000000000
         -1.408616960189       0.000000000000
         -1.408628209550       0.000000000000
         -1.408630986859       0.000000000000
         -1.408638897891       0.000000000000

info:     0
General_solver

eigenvalue       1.408628209550
 norm is             0.133017



eigenvalue       1.408630986859
 norm is             0.078138



eigenvalue       1.408638897891
 norm is             0.099628



eigenvalue       1.408616960189
 norm is             0.037370



eigenvalue       1.410836866198
 norm is             0.072184



eigenvalue       1.410856683131
 norm is             0.062504



eigenvalue       1.410817662370
 norm is             0.034903



eigenvalue       1.410890295631
 norm is             0.029721



eigenvalue       1.407905763432
 norm is             0.177951



eigenvalue       1.407902728451
 norm is             0.171632



eigenvalue       1.412279693265
 norm is             0.137785



eigenvalue       1.412246641111
 norm is             0.031914



eigenvalue       1.939469481411
 norm is             0.027853



eigenvalue       1.939494689844
 norm is             0.049017



eigenvalue       1.939542949452
 norm is             0.093963



eigenvalue       1.939686995239
 norm is             0.015064



eigenvalue       1.939663476069
 norm is             0.053239



eigenvalue       1.939276019511
 norm is             0.009337



eigenvalue       1.939062934281
 norm is             0.023019



eigenvalue       1.938536477400
 norm is             0.018183



eigenvalue       1.938392572466
 norm is             0.019693



eigenvalue       1.937520525933
 norm is             0.006222



eigenvalue       1.941399302724
 norm is             0.004525



eigenvalue       1.942419882267
 norm is             0.012465



eigenvalue       1.872572627960
 norm is             0.031346



eigenvalue       1.872542412563
 norm is             0.011159



eigenvalue       1.872436440544
 norm is             0.007045



eigenvalue       1.873440989699
 norm is             0.008446



eigenvalue       1.869785882208
 norm is             0.009968



eigenvalue       1.870286976372
 norm is             0.128043



eigenvalue       1.877127735020
 norm is             0.002765



eigenvalue       1.883865274175
 norm is             0.001960



eigenvalue       1.962288033262
 norm is             0.024710



eigenvalue       1.962063913348
 norm is             0.008152



eigenvalue       1.962634270317
 norm is             0.011687



eigenvalue       1.962727878867
 norm is             0.007430



eigenvalue       1.961708161266
 norm is             0.003521



eigenvalue       1.963362105042
 norm is             0.016901



eigenvalue       1.894996459780
 norm is             0.002691



eigenvalue       1.853542849454
 norm is             0.003652



eigenvalue       1.847099399981
 norm is             0.003016



eigenvalue       1.845902539163
 norm is             0.002405



eigenvalue       1.834930807211
 norm is             0.007827



eigenvalue       1.837065509962
 norm is             0.002145



eigenvalue       1.830165682991
 norm is             0.002923



eigenvalue       1.827246493477
 norm is             0.002693



eigenvalue       1.820384392763
 norm is             0.003368



eigenvalue       1.971255334569
 norm is             0.001201



eigenvalue       1.809013255089
 norm is             0.003170



eigenvalue       1.790432266578
 norm is             0.001704



eigenvalue       1.783822623147
 norm is             0.002458



eigenvalue       1.770880833452
 norm is             0.001835



eigenvalue       1.422502619523
 norm is             0.001491



eigenvalue       1.390794564892
 norm is             0.001774



eigenvalue       1.389269490013
 norm is             0.001893



eigenvalue       1.991687383641
 norm is             0.001267



eigenvalue       1.992639487059
 norm is             0.001671



eigenvalue       1.438821396693
 norm is             0.001748



eigenvalue       1.739537066236
 norm is             0.001536



eigenvalue       1.713048698735
 norm is             0.001401



eigenvalue       1.474948567656
 norm is             0.001250



eigenvalue       1.510589325089
 norm is             0.001876



eigenvalue       1.538653277051
 norm is             0.001924



eigenvalue       1.560643270719
 norm is             0.001240



eigenvalue       1.576046024813
 norm is             0.001135



eigenvalue       1.590448250233
 norm is             0.001408



eigenvalue       1.606107101848
 norm is             0.001363



eigenvalue       1.632511133207
 norm is             0.001193



eigenvalue       1.341256166031
 norm is             0.001170



eigenvalue       1.325507982781
 norm is             0.001837



eigenvalue       1.293837552561
 norm is             0.002250



eigenvalue       1.259388145589
 norm is             0.000910



eigenvalue       1.244916606182
 norm is             0.001019



eigenvalue       1.221366318900
 norm is             0.001975



eigenvalue       1.193910687905
 norm is             0.002100



eigenvalue       1.168910149413
 norm is             0.000995



eigenvalue       1.150609605394
 norm is             0.000754



eigenvalue       1.140660683608
 norm is             0.001694



eigenvalue       1.130562003257
 norm is             0.002060



eigenvalue       1.104025375997
 norm is             0.005724



eigenvalue       1.101071171043
 norm is             0.028399



eigenvalue       1.073915625514
 norm is             0.002089



eigenvalue       1.065001331773
 norm is             0.041088



eigenvalue       1.063313067732
 norm is             0.002531



eigenvalue       1.042843201380
 norm is             0.004356



eigenvalue       1.040799621805
 norm is             0.007713



eigenvalue       1.046529925577
 norm is             0.002433



eigenvalue       1.023506396500
 norm is             0.001921



eigenvalue       0.996824882255
 norm is             0.001637



eigenvalue       0.979242466712
 norm is             0.012659



eigenvalue       0.980138653743
 norm is             0.008614



eigenvalue       0.943469051553
 norm is             0.004340



eigenvalue       0.940471310613
 norm is             0.004415



eigenvalue       0.935788720782
 norm is             0.008269



eigenvalue       0.934867835914
 norm is             0.018425



eigenvalue       0.952947863778
 norm is             0.001007



eigenvalue       0.913222201924
 norm is             0.002244



eigenvalue       2.030507778044
 norm is             0.000903



eigenvalue       0.876841493188
 norm is             0.001953



eigenvalue       0.852388199062
 norm is             0.001130



eigenvalue       0.823353399860
 norm is             0.001795



eigenvalue       2.081596354305
 norm is             0.001325



eigenvalue       0.772803567617
 norm is             0.000701



eigenvalue       0.679436080807
 norm is             0.051863



eigenvalue       0.679653382198
 norm is             0.030467



eigenvalue       0.678139873297
 norm is             0.043301



eigenvalue       0.676892418829
 norm is             0.030533



eigenvalue       2.117293517843
 norm is             0.001005



eigenvalue       0.542419055967
 norm is             0.000613



eigenvalue       0.436396755380
 norm is             0.000511



eigenvalue       0.401341522061
 norm is             0.000313



eigenvalue       2.210443427812
 norm is             0.000870



eigenvalue       2.230457542766
 norm is             0.000768



eigenvalue       2.231874275571
 norm is             0.001250



eigenvalue       2.271534611364
 norm is             0.001533



eigenvalue       2.312516296156
 norm is             0.002702



eigenvalue       2.352745438403
 norm is             0.001548



eigenvalue       2.373685380073
 norm is             0.000872



eigenvalue       2.398339310251
 norm is             0.001445



eigenvalue       2.444673504898
 norm is             0.001558



eigenvalue       2.467446467800
 norm is             0.001763



eigenvalue       2.563624112361
 norm is             0.001711



eigenvalue       2.595200745599
 norm is             0.000700



eigenvalue       2.725761987872
 norm is             0.000678



eigenvalue       2.735677312447
 norm is             0.001591



eigenvalue       2.775705747218
 norm is             0.000916



eigenvalue       2.856936581753
 norm is             0.001535



eigenvalue       2.981989448675
 norm is             0.000290



eigenvalue       3.134100293474
 norm is             0.001437



eigenvalue       3.413318945172
 norm is             0.000870



eigenvalue       3.607341665452
 norm is             0.000393



eigenvalue       3.752170753466
 norm is             0.000806



eigenvalue       3.892379269853
 norm is             0.000491



eigenvalue       3.899948802420
 norm is             0.000494



eigenvalue       4.323179959260
 norm is             0.000459



eigenvalue       4.547354319845
 norm is             0.001138



eigenvalue       4.909435317258
 norm is             0.000379



eigenvalue       5.606584800718
 norm is             0.000363



eigenvalue       6.014555968584
 norm is             0.001018



eigenvalue       6.052790795237
 norm is             0.000328



eigenvalue       6.199642754366
 norm is             0.000316



eigenvalue       6.337690397511
 norm is             0.000301



eigenvalue       6.975219984794
 norm is             0.242026



eigenvalue       6.981988957478
 norm is             0.264287



eigenvalue       9.513776549711
 norm is             0.000231



eigenvalue      11.180106244315
 norm is             0.000304



eigenvalue      11.496251303703
 norm is             0.000545



eigenvalue      12.012333396036
 norm is             0.000531



eigenvalue      12.366991255974
 norm is             0.000867



eigenvalue      17.243070700025
 norm is             0.000045



eigenvalue      22.592682830473
 norm is             0.000154



eigenvalue      37.503581460618
 norm is             0.000122



eigenvalue     103.922674083646
 norm is             0.000101



eigenvalue     102.881487672935
 norm is             0.000185



eigenvalue     153.374224124235
 norm is             0.000142



eigenvalue     957.825156644634
 norm is             0.000007



eigenvalue    3095.058400864120
 norm is             0.009403



eigenvalue    3071.207721071748
 norm is             0.009506


     -0.519599196348

    Reference energy                  -1.997217283463


    * AC correlation energy           -0.000094747339
    * AC total energy                 -1.997312030802


*** tstop() called on ed4 at Wed Nov 14 11:44:01 2018
Module time:
	user time   =     306.55 seconds =       5.11 minutes
	system time =      12.94 seconds =       0.22 minutes
	total time  =        252 seconds =       4.20 minutes
Total time:
	user time   =     390.72 seconds =       6.51 minutes
	system time =      17.85 seconds =       0.30 minutes
	total time  =        268 seconds =       4.47 minutes

    Psi4 stopped on: Wednesday, 14 November 2018 11:44AM
    Psi4 wall time for execution: 0:04:28.64

*** Psi4 exiting successfully. Buy a developer a beer!
