
Host: ed4

Timers On : Mon Jan 29 17:18:10 2018
Timers Off: Mon Jan 29 17:18:10 2018

Wall Time:        0.28 seconds


-----------------------------------------------------------

***********************************************************

Host: ed4

Timers On : Mon Jan 29 17:19:46 2018
Timers Off: Mon Jan 29 17:19:46 2018

Wall Time:        0.30 seconds


-----------------------------------------------------------

***********************************************************

Host: ed4

Timers On : Mon Jan 29 17:21:40 2018
Timers Off: Mon Jan 29 17:21:41 2018

Wall Time:        0.31 seconds


-----------------------------------------------------------

***********************************************************

Host: ed4

Timers On : Mon Jan 29 17:23:13 2018
Timers Off: Mon Jan 29 17:23:13 2018

Wall Time:        0.22 seconds


-----------------------------------------------------------

***********************************************************

Host: ed4

Timers On : Tue Jan 30 19:14:26 2018
Timers Off: Tue Jan 30 19:14:26 2018

Wall Time:        0.29 seconds


-----------------------------------------------------------

***********************************************************

Host: ed4

Timers On : Tue Jan 30 19:15:42 2018
Timers Off: Tue Jan 30 19:15:42 2018

Wall Time:        0.23 seconds


-----------------------------------------------------------

***********************************************************

Host: ed4

Timers On : Tue Jan 30 19:16:16 2018
Timers Off: Tue Jan 30 19:16:17 2018

Wall Time:        0.15 seconds


-----------------------------------------------------------

***********************************************************

Host: ed4

Timers On : Tue Jan 30 19:19:05 2018
Timers Off: Tue Jan 30 19:19:06 2018

Wall Time:        0.98 seconds

JK: (A|mn)                  :      0.017u      0.000s      0.008w      1 calls
JK: (A|Q)^-1/2              :      0.117u      0.183s      0.058w      1 calls
JK: (Q|mn)                  :      0.000u      0.000s      0.000w      1 calls
HF: Form H                  :      0.017u      0.083s      0.008w      1 calls
HF: Form S/X                :      0.000u      0.000s      0.000w      1 calls
HF: Guess                   :      0.000u      0.000s      0.000w      1 calls
HF: Form G                  :      0.017u      0.033s      0.003w      9 calls
JK: D                       :      0.000u      0.000s      0.000w      9 calls
JK: USO2AO                  :      0.000u      0.017s      0.000w      9 calls
JK: JK                      :      0.017u      0.017s      0.002w      9 calls
JK: J                       :      0.017u      0.017s      0.000w      9 calls
JK: J1                      :      0.017u      0.000s      0.000w     18 calls
JK: J2                      :      0.000u      0.017s      0.000w     18 calls
JK: K                       :      0.000u      0.000s      0.001w      9 calls
JK: K1                      :      0.000u      0.000s      0.001w      9 calls
JK: K2                      :      0.000u      0.000s      0.000w      9 calls
JK: AO2USO                  :      0.000u      0.000s      0.000w      9 calls
HF: Form F                  :      0.000u      0.000s      0.000w      9 calls
HF: DIIS                    :      0.000u      0.017s      0.003w      9 calls
DIISManager::add_entry      :      0.000u      0.017s      0.001w      9 calls
DIISManager::extrapolate    :      0.000u      0.000s      0.001w      8 calls
bMatrix setup               :      0.000u      0.000s      0.000w      8 calls
bMatrix pseudoinverse       :      0.000u      0.000s      0.000w      8 calls
New vector                  :      0.000u      0.000s      0.000w      8 calls
HF: Form C                  :      0.000u      0.000s      0.000w      9 calls
HF: Form D                  :      0.000u      0.000s      0.000w      9 calls

-----------------------------------------------------------
JK: (A|mn)                  :      0.017u      0.000s      0.008w      1 calls
JK: (A|Q)^-1/2              :      0.117u      0.183s      0.058w      1 calls
JK: (Q|mn)                  :      0.000u      0.000s      0.000w      1 calls
HF: Form H                  :      0.017u      0.083s      0.008w      1 calls
HF: Form S/X                :      0.000u      0.000s      0.000w      1 calls
HF: Guess                   :      0.000u      0.000s      0.000w      1 calls
HF: Form G                  :      0.017u      0.033s      0.003w      9 calls
| JK: D                     :      0.000u      0.000s      0.000w      9 calls
| JK: USO2AO                :      0.000u      0.017s      0.000w      9 calls
| JK: JK                    :      0.017u      0.017s      0.002w      9 calls
| | JK: J                   :      0.017u      0.017s      0.000w      9 calls
| | | JK: J1                :      0.017u      0.000s      0.000w     18 calls
| | | JK: J2                :      0.000u      0.017s      0.000w     18 calls
| | JK: K                   :      0.000u      0.000s      0.001w      9 calls
| | | JK: K1                :      0.000u      0.000s      0.001w      9 calls
| | | JK: K2                :      0.000u      0.000s      0.000w      9 calls
| JK: AO2USO                :      0.000u      0.000s      0.000w      9 calls
HF: Form F                  :      0.000u      0.000s      0.000w      9 calls
HF: DIIS                    :      0.000u      0.017s      0.003w      9 calls
| DIISManager::add_entry    :      0.000u      0.017s      0.001w      9 calls
| DIISManager::extrapolate  :      0.000u      0.000s      0.001w      8 calls
| | bMatrix setup           :      0.000u      0.000s      0.000w      8 calls
| | bMatrix pseudoinverse   :      0.000u      0.000s      0.000w      8 calls
| | New vector              :      0.000u      0.000s      0.000w      8 calls
HF: Form C                  :      0.000u      0.000s      0.000w      9 calls
HF: Form D                  :      0.000u      0.000s      0.000w      9 calls

***********************************************************

Host: ed4

Timers On : Fri Feb  9 20:43:21 2018
Timers Off: Fri Feb  9 20:43:21 2018

Wall Time:        0.33 seconds


-----------------------------------------------------------

***********************************************************

Host: ed4

Timers On : Mon Feb 12 11:11:52 2018
Timers Off: Mon Feb 12 11:11:53 2018

Wall Time:        0.36 seconds


-----------------------------------------------------------

***********************************************************

Host: ed4

Timers On : Mon Feb 12 17:30:22 2018
Timers Off: Mon Feb 12 17:30:23 2018

Wall Time:        0.32 seconds


-----------------------------------------------------------

***********************************************************

Host: ed4

Timers On : Mon Feb 12 17:31:48 2018
Timers Off: Mon Feb 12 17:31:49 2018

Wall Time:        0.95 seconds

JK: (A|mn)                  :      0.017u      0.000s      0.008w      1 calls
JK: (A|Q)^-1/2              :      0.100u      0.133s      0.062w      1 calls
JK: (Q|mn)                  :      0.000u      0.017s      0.000w      1 calls
HF: Form H                  :      0.017u      0.100s      0.009w      1 calls
HF: Form S/X                :      0.000u      0.000s      0.000w      1 calls
HF: Guess                   :      0.000u      0.000s      0.000w      1 calls
HF: Form G                  :      0.000u      0.050s      0.003w      9 calls
JK: D                       :      0.000u      0.017s      0.000w      9 calls
JK: USO2AO                  :      0.000u      0.000s      0.000w      9 calls
JK: JK                      :      0.000u      0.033s      0.002w      9 calls
JK: J                       :      0.000u      0.017s      0.000w      9 calls
JK: J1                      :      0.000u      0.000s      0.000w     18 calls
JK: J2                      :      0.000u      0.000s      0.000w     18 calls
JK: K                       :      0.000u      0.017s      0.001w      9 calls
JK: K1                      :      0.000u      0.017s      0.001w      9 calls
JK: K2                      :      0.000u      0.000s      0.000w      9 calls
JK: AO2USO                  :      0.000u      0.000s      0.000w      9 calls
HF: Form F                  :      0.000u      0.000s      0.000w      9 calls
HF: DIIS                    :      0.033u      0.017s      0.003w      9 calls
DIISManager::add_entry      :      0.000u      0.000s      0.001w      9 calls
DIISManager::extrapolate    :      0.000u      0.000s      0.001w      8 calls
bMatrix setup               :      0.000u      0.000s      0.000w      8 calls
bMatrix pseudoinverse       :      0.000u      0.000s      0.000w      8 calls
New vector                  :      0.000u      0.000s      0.000w      8 calls
HF: Form C                  :      0.000u      0.000s      0.000w      9 calls
HF: Form D                  :      0.000u      0.000s      0.000w      9 calls

-----------------------------------------------------------
JK: (A|mn)                  :      0.017u      0.000s      0.008w      1 calls
JK: (A|Q)^-1/2              :      0.100u      0.133s      0.062w      1 calls
JK: (Q|mn)                  :      0.000u      0.017s      0.000w      1 calls
HF: Form H                  :      0.017u      0.100s      0.009w      1 calls
HF: Form S/X                :      0.000u      0.000s      0.000w      1 calls
HF: Guess                   :      0.000u      0.000s      0.000w      1 calls
HF: Form G                  :      0.000u      0.050s      0.003w      9 calls
| JK: D                     :      0.000u      0.017s      0.000w      9 calls
| JK: USO2AO                :      0.000u      0.000s      0.000w      9 calls
| JK: JK                    :      0.000u      0.033s      0.002w      9 calls
| | JK: J                   :      0.000u      0.017s      0.000w      9 calls
| | | JK: J1                :      0.000u      0.000s      0.000w     18 calls
| | | JK: J2                :      0.000u      0.000s      0.000w     18 calls
| | JK: K                   :      0.000u      0.017s      0.001w      9 calls
| | | JK: K1                :      0.000u      0.017s      0.001w      9 calls
| | | JK: K2                :      0.000u      0.000s      0.000w      9 calls
| JK: AO2USO                :      0.000u      0.000s      0.000w      9 calls
HF: Form F                  :      0.000u      0.000s      0.000w      9 calls
HF: DIIS                    :      0.033u      0.017s      0.003w      9 calls
| DIISManager::add_entry    :      0.000u      0.000s      0.001w      9 calls
| DIISManager::extrapolate  :      0.000u      0.000s      0.001w      8 calls
| | bMatrix setup           :      0.000u      0.000s      0.000w      8 calls
| | bMatrix pseudoinverse   :      0.000u      0.000s      0.000w      8 calls
| | New vector              :      0.000u      0.000s      0.000w      8 calls
HF: Form C                  :      0.000u      0.000s      0.000w      9 calls
HF: Form D                  :      0.000u      0.000s      0.000w      9 calls

***********************************************************

Host: ed4

Timers On : Mon Feb 12 17:33:40 2018
Timers Off: Mon Feb 12 17:33:41 2018

Wall Time:        0.97 seconds

JK: (A|mn)                  :      0.017u      0.000s      0.009w      1 calls
JK: (A|Q)^-1/2              :      0.117u      0.150s      0.058w      1 calls
JK: (Q|mn)                  :      0.000u      0.000s      0.000w      1 calls
HF: Form H                  :      0.017u      0.117s      0.008w      1 calls
HF: Form S/X                :      0.000u      0.000s      0.000w      1 calls
HF: Guess                   :      0.000u      0.000s      0.000w      1 calls
HF: Form G                  :      0.000u      0.017s      0.002w      9 calls
JK: D                       :      0.000u      0.000s      0.000w      9 calls
JK: USO2AO                  :      0.000u      0.000s      0.000w      9 calls
JK: JK                      :      0.000u      0.017s      0.001w      9 calls
JK: J                       :      0.000u      0.000s      0.000w      9 calls
JK: J1                      :      0.000u      0.000s      0.000w     18 calls
JK: J2                      :      0.000u      0.000s      0.000w     18 calls
JK: K                       :      0.000u      0.017s      0.001w      9 calls
JK: K1                      :      0.000u      0.017s      0.001w      9 calls
JK: K2                      :      0.000u      0.000s      0.000w      9 calls
JK: AO2USO                  :      0.000u      0.000s      0.000w      9 calls
HF: Form F                  :      0.000u      0.000s      0.000w      9 calls
HF: DIIS                    :      0.017u      0.000s      0.002w      9 calls
DIISManager::add_entry      :      0.017u      0.000s      0.001w      9 calls
DIISManager::extrapolate    :      0.000u      0.000s      0.001w      8 calls
bMatrix setup               :      0.000u      0.000s      0.000w      8 calls
bMatrix pseudoinverse       :      0.000u      0.000s      0.000w      8 calls
New vector                  :      0.000u      0.000s      0.000w      8 calls
HF: Form C                  :      0.000u      0.017s      0.000w      9 calls
HF: Form D                  :      0.000u      0.000s      0.000w      9 calls

-----------------------------------------------------------
JK: (A|mn)                  :      0.017u      0.000s      0.009w      1 calls
JK: (A|Q)^-1/2              :      0.117u      0.150s      0.058w      1 calls
JK: (Q|mn)                  :      0.000u      0.000s      0.000w      1 calls
HF: Form H                  :      0.017u      0.117s      0.008w      1 calls
HF: Form S/X                :      0.000u      0.000s      0.000w      1 calls
HF: Guess                   :      0.000u      0.000s      0.000w      1 calls
HF: Form G                  :      0.000u      0.017s      0.002w      9 calls
| JK: D                     :      0.000u      0.000s      0.000w      9 calls
| JK: USO2AO                :      0.000u      0.000s      0.000w      9 calls
| JK: JK                    :      0.000u      0.017s      0.001w      9 calls
| | JK: J                   :      0.000u      0.000s      0.000w      9 calls
| | | JK: J1                :      0.000u      0.000s      0.000w     18 calls
| | | JK: J2                :      0.000u      0.000s      0.000w     18 calls
| | JK: K                   :      0.000u      0.017s      0.001w      9 calls
| | | JK: K1                :      0.000u      0.017s      0.001w      9 calls
| | | JK: K2                :      0.000u      0.000s      0.000w      9 calls
| JK: AO2USO                :      0.000u      0.000s      0.000w      9 calls
HF: Form F                  :      0.000u      0.000s      0.000w      9 calls
HF: DIIS                    :      0.017u      0.000s      0.002w      9 calls
| DIISManager::add_entry    :      0.017u      0.000s      0.001w      9 calls
| DIISManager::extrapolate  :      0.000u      0.000s      0.001w      8 calls
| | bMatrix setup           :      0.000u      0.000s      0.000w      8 calls
| | bMatrix pseudoinverse   :      0.000u      0.000s      0.000w      8 calls
| | New vector              :      0.000u      0.000s      0.000w      8 calls
HF: Form C                  :      0.000u      0.017s      0.000w      9 calls
HF: Form D                  :      0.000u      0.000s      0.000w      9 calls

***********************************************************

Host: ed4

Timers On : Wed Feb 14 19:33:27 2018
Timers Off: Wed Feb 14 19:33:28 2018

Wall Time:        1.11 seconds

JK: (A|mn)                  :      0.017u      0.000s      0.001w      1 calls
JK: (A|Q)^-1/2              :      0.250u      0.183s      0.124w      1 calls
JK: (Q|mn)                  :      0.000u      0.017s      0.000w      1 calls
HF: Form H                  :      0.033u      0.200s      0.014w      1 calls
HF: Form S/X                :      0.050u      0.133s      0.011w      1 calls
HF: Guess                   :      0.067u      0.283s      0.019w      1 calls
HF: Form G                  :      0.017u      0.017s      0.002w      9 calls
JK: D                       :      0.000u      0.000s      0.000w      9 calls
JK: USO2AO                  :      0.000u      0.000s      0.000w      9 calls
JK: JK                      :      0.017u      0.017s      0.002w      9 calls
JK: J                       :      0.000u      0.000s      0.000w      9 calls
JK: J1                      :      0.000u      0.000s      0.000w     18 calls
JK: J2                      :      0.000u      0.000s      0.000w     18 calls
JK: K                       :      0.000u      0.017s      0.001w      9 calls
JK: K1                      :      0.000u      0.017s      0.001w      9 calls
JK: K2                      :      0.000u      0.000s      0.000w      9 calls
JK: AO2USO                  :      0.000u      0.000s      0.000w      9 calls
HF: Form F                  :      0.000u      0.000s      0.000w      9 calls
HF: DIIS                    :      0.017u      0.000s      0.002w      9 calls
DIISManager::add_entry      :      0.000u      0.000s      0.002w      9 calls
DIISManager::extrapolate    :      0.017u      0.000s      0.000w      8 calls
bMatrix setup               :      0.000u      0.000s      0.000w      8 calls
bMatrix pseudoinverse       :      0.017u      0.000s      0.000w      8 calls
New vector                  :      0.000u      0.000s      0.000w      8 calls
HF: Form C                  :      0.000u      0.017s      0.000w      9 calls
HF: Form D                  :      0.000u      0.000s      0.000w      9 calls

-----------------------------------------------------------
JK: (A|mn)                  :      0.017u      0.000s      0.001w      1 calls
JK: (A|Q)^-1/2              :      0.250u      0.183s      0.124w      1 calls
JK: (Q|mn)                  :      0.000u      0.017s      0.000w      1 calls
HF: Form H                  :      0.033u      0.200s      0.014w      1 calls
HF: Form S/X                :      0.050u      0.133s      0.011w      1 calls
HF: Guess                   :      0.067u      0.283s      0.019w      1 calls
HF: Form G                  :      0.017u      0.017s      0.002w      9 calls
| JK: D                     :      0.000u      0.000s      0.000w      9 calls
| JK: USO2AO                :      0.000u      0.000s      0.000w      9 calls
| JK: JK                    :      0.017u      0.017s      0.002w      9 calls
| | JK: J                   :      0.000u      0.000s      0.000w      9 calls
| | | JK: J1                :      0.000u      0.000s      0.000w     18 calls
| | | JK: J2                :      0.000u      0.000s      0.000w     18 calls
| | JK: K                   :      0.000u      0.017s      0.001w      9 calls
| | | JK: K1                :      0.000u      0.017s      0.001w      9 calls
| | | JK: K2                :      0.000u      0.000s      0.000w      9 calls
| JK: AO2USO                :      0.000u      0.000s      0.000w      9 calls
HF: Form F                  :      0.000u      0.000s      0.000w      9 calls
HF: DIIS                    :      0.017u      0.000s      0.002w      9 calls
| DIISManager::add_entry    :      0.000u      0.000s      0.002w      9 calls
| DIISManager::extrapolate  :      0.017u      0.000s      0.000w      8 calls
| | bMatrix setup           :      0.000u      0.000s      0.000w      8 calls
| | bMatrix pseudoinverse   :      0.017u      0.000s      0.000w      8 calls
| | New vector              :      0.000u      0.000s      0.000w      8 calls
HF: Form C                  :      0.000u      0.017s      0.000w      9 calls
HF: Form D                  :      0.000u      0.000s      0.000w      9 calls

***********************************************************

Host: ed4

Timers On : Mon Feb 19 16:18:11 2018
Timers Off: Mon Feb 19 16:18:12 2018

Wall Time:        0.16 seconds


-----------------------------------------------------------

***********************************************************

Host: ed4

Timers On : Mon Feb 19 16:19:08 2018
Timers Off: Mon Feb 19 16:19:09 2018

Wall Time:        0.50 seconds

JK: (A|mn)                  :      0.000u      0.000s      0.003w      1 calls
JK: (A|Q)^-1/2              :      0.050u      0.000s      0.032w      1 calls
JK: (Q|mn)                  :      0.000u      0.000s      0.000w      1 calls
HF: Form H                  :      0.000u      0.000s      0.008w      1 calls
HF: Form S/X                :      0.000u      0.000s      0.000w      1 calls
HF: Guess                   :      0.000u      0.000s      0.000w      1 calls
HF: Form G                  :      0.000u      0.000s      0.001w      9 calls
JK: D                       :      0.000u      0.000s      0.000w      9 calls
JK: USO2AO                  :      0.000u      0.000s      0.000w      9 calls
JK: JK                      :      0.000u      0.000s      0.001w      9 calls
JK: J                       :      0.000u      0.000s      0.000w      9 calls
JK: J1                      :      0.000u      0.000s      0.000w     18 calls
JK: J2                      :      0.000u      0.000s      0.000w     18 calls
JK: K                       :      0.000u      0.000s      0.001w      9 calls
JK: K1                      :      0.000u      0.000s      0.000w      9 calls
JK: K2                      :      0.000u      0.000s      0.000w      9 calls
JK: AO2USO                  :      0.000u      0.000s      0.000w      9 calls
HF: Form F                  :      0.000u      0.000s      0.000w      9 calls
HF: DIIS                    :      0.017u      0.000s      0.002w      9 calls
DIISManager::add_entry      :      0.000u      0.000s      0.002w      9 calls
DIISManager::extrapolate    :      0.017u      0.000s      0.000w      8 calls
bMatrix setup               :      0.000u      0.000s      0.000w      8 calls
bMatrix pseudoinverse       :      0.017u      0.000s      0.000w      8 calls
New vector                  :      0.000u      0.000s      0.000w      8 calls
HF: Form C                  :      0.000u      0.000s      0.000w      9 calls
HF: Form D                  :      0.000u      0.000s      0.000w      9 calls

-----------------------------------------------------------
JK: (A|mn)                  :      0.000u      0.000s      0.003w      1 calls
JK: (A|Q)^-1/2              :      0.050u      0.000s      0.032w      1 calls
JK: (Q|mn)                  :      0.000u      0.000s      0.000w      1 calls
HF: Form H                  :      0.000u      0.000s      0.008w      1 calls
HF: Form S/X                :      0.000u      0.000s      0.000w      1 calls
HF: Guess                   :      0.000u      0.000s      0.000w      1 calls
HF: Form G                  :      0.000u      0.000s      0.001w      9 calls
| JK: D                     :      0.000u      0.000s      0.000w      9 calls
| JK: USO2AO                :      0.000u      0.000s      0.000w      9 calls
| JK: JK                    :      0.000u      0.000s      0.001w      9 calls
| | JK: J                   :      0.000u      0.000s      0.000w      9 calls
| | | JK: J1                :      0.000u      0.000s      0.000w     18 calls
| | | JK: J2                :      0.000u      0.000s      0.000w     18 calls
| | JK: K                   :      0.000u      0.000s      0.001w      9 calls
| | | JK: K1                :      0.000u      0.000s      0.000w      9 calls
| | | JK: K2                :      0.000u      0.000s      0.000w      9 calls
| JK: AO2USO                :      0.000u      0.000s      0.000w      9 calls
HF: Form F                  :      0.000u      0.000s      0.000w      9 calls
HF: DIIS                    :      0.017u      0.000s      0.002w      9 calls
| DIISManager::add_entry    :      0.000u      0.000s      0.002w      9 calls
| DIISManager::extrapolate  :      0.017u      0.000s      0.000w      8 calls
| | bMatrix setup           :      0.000u      0.000s      0.000w      8 calls
| | bMatrix pseudoinverse   :      0.017u      0.000s      0.000w      8 calls
| | New vector              :      0.000u      0.000s      0.000w      8 calls
HF: Form C                  :      0.000u      0.000s      0.000w      9 calls
HF: Form D                  :      0.000u      0.000s      0.000w      9 calls

***********************************************************

Host: ed4

Timers On : Mon Feb 19 16:20:25 2018
Timers Off: Mon Feb 19 16:21:13 2018

Wall Time:       48.70 seconds

JK: (A|mn)                  :      0.000u      0.000s      0.001w      1 calls
JK: (A|Q)^-1/2              :      1.217u      0.000s      0.123w      1 calls
JK: (Q|mn)                  :      0.000u      0.000s      0.000w      1 calls
HF: Form H                  :      0.067u      0.000s      0.009w      1 calls
HF: Form S/X                :      0.000u      0.000s      0.000w      1 calls
HF: Guess                   :      0.000u      0.000s      0.000w      1 calls
HF: Form G                  :      0.033u      0.017s      0.002w      9 calls
JK: D                       :      0.000u      0.000s      0.000w      9 calls
JK: USO2AO                  :      0.017u      0.000s      0.000w      9 calls
JK: JK                      :      0.017u      0.017s      0.001w      9 calls
JK: J                       :      0.000u      0.017s      0.000w      9 calls
JK: J1                      :      0.000u      0.000s      0.000w     18 calls
JK: J2                      :      0.000u      0.017s      0.000w     18 calls
JK: K                       :      0.000u      0.000s      0.000w      9 calls
JK: K1                      :      0.000u      0.000s      0.000w      9 calls
JK: K2                      :      0.000u      0.000s      0.000w      9 calls
JK: AO2USO                  :      0.000u      0.000s      0.000w      9 calls
HF: Form F                  :      0.000u      0.000s      0.000w      9 calls
HF: DIIS                    :      0.017u      0.000s      0.002w      9 calls
DIISManager::add_entry      :      0.017u      0.000s      0.002w      9 calls
DIISManager::extrapolate    :      0.000u      0.000s      0.000w      8 calls
bMatrix setup               :      0.000u      0.000s      0.000w      8 calls
bMatrix pseudoinverse       :      0.000u      0.000s      0.000w      8 calls
New vector                  :      0.000u      0.000s      0.000w      8 calls
HF: Form C                  :      0.000u      0.000s      0.000w      9 calls
HF: Form D                  :      0.000u      0.000s      0.000w      9 calls

-----------------------------------------------------------
JK: (A|mn)                  :      0.000u      0.000s      0.001w      1 calls
JK: (A|Q)^-1/2              :      1.217u      0.000s      0.123w      1 calls
JK: (Q|mn)                  :      0.000u      0.000s      0.000w      1 calls
HF: Form H                  :      0.067u      0.000s      0.009w      1 calls
HF: Form S/X                :      0.000u      0.000s      0.000w      1 calls
HF: Guess                   :      0.000u      0.000s      0.000w      1 calls
HF: Form G                  :      0.033u      0.017s      0.002w      9 calls
| JK: D                     :      0.000u      0.000s      0.000w      9 calls
| JK: USO2AO                :      0.017u      0.000s      0.000w      9 calls
| JK: JK                    :      0.017u      0.017s      0.001w      9 calls
| | JK: J                   :      0.000u      0.017s      0.000w      9 calls
| | | JK: J1                :      0.000u      0.000s      0.000w     18 calls
| | | JK: J2                :      0.000u      0.017s      0.000w     18 calls
| | JK: K                   :      0.000u      0.000s      0.000w      9 calls
| | | JK: K1                :      0.000u      0.000s      0.000w      9 calls
| | | JK: K2                :      0.000u      0.000s      0.000w      9 calls
| JK: AO2USO                :      0.000u      0.000s      0.000w      9 calls
HF: Form F                  :      0.000u      0.000s      0.000w      9 calls
HF: DIIS                    :      0.017u      0.000s      0.002w      9 calls
| DIISManager::add_entry    :      0.017u      0.000s      0.002w      9 calls
| DIISManager::extrapolate  :      0.000u      0.000s      0.000w      8 calls
| | bMatrix setup           :      0.000u      0.000s      0.000w      8 calls
| | bMatrix pseudoinverse   :      0.000u      0.000s      0.000w      8 calls
| | New vector              :      0.000u      0.000s      0.000w      8 calls
HF: Form C                  :      0.000u      0.000s      0.000w      9 calls
HF: Form D                  :      0.000u      0.000s      0.000w      9 calls

***********************************************************

Host: ed4

Timers On : Mon Feb 19 16:24:40 2018
Timers Off: Mon Feb 19 16:25:28 2018

Wall Time:       48.26 seconds

JK: (A|mn)                  :      0.000u      0.000s      0.005w      1 calls
JK: (A|Q)^-1/2              :      0.083u      0.000s      0.047w      1 calls
JK: (Q|mn)                  :      0.000u      0.000s      0.000w      1 calls
HF: Form H                  :      0.000u      0.000s      0.010w      1 calls
HF: Form S/X                :      0.000u      0.000s      0.000w      1 calls
HF: Guess                   :      0.000u      0.000s      0.000w      1 calls
HF: Form G                  :      0.000u      0.000s      0.002w      9 calls
JK: D                       :      0.000u      0.000s      0.000w      9 calls
JK: USO2AO                  :      0.000u      0.000s      0.000w      9 calls
JK: JK                      :      0.000u      0.000s      0.001w      9 calls
JK: J                       :      0.000u      0.000s      0.000w      9 calls
JK: J1                      :      0.000u      0.000s      0.000w     18 calls
JK: J2                      :      0.000u      0.000s      0.000w     18 calls
JK: K                       :      0.000u      0.000s      0.001w      9 calls
JK: K1                      :      0.000u      0.000s      0.001w      9 calls
JK: K2                      :      0.000u      0.000s      0.000w      9 calls
JK: AO2USO                  :      0.000u      0.000s      0.000w      9 calls
HF: Form F                  :      0.000u      0.000s      0.000w      9 calls
HF: DIIS                    :      0.017u      0.000s      0.003w      9 calls
DIISManager::add_entry      :      0.017u      0.000s      0.002w      9 calls
DIISManager::extrapolate    :      0.000u      0.000s      0.001w      8 calls
bMatrix setup               :      0.000u      0.000s      0.000w      8 calls
bMatrix pseudoinverse       :      0.000u      0.000s      0.000w      8 calls
New vector                  :      0.000u      0.000s      0.000w      8 calls
HF: Form C                  :      0.000u      0.000s      0.000w      9 calls
HF: Form D                  :      0.000u      0.000s      0.000w      9 calls

-----------------------------------------------------------
JK: (A|mn)                  :      0.000u      0.000s      0.005w      1 calls
JK: (A|Q)^-1/2              :      0.083u      0.000s      0.047w      1 calls
JK: (Q|mn)                  :      0.000u      0.000s      0.000w      1 calls
HF: Form H                  :      0.000u      0.000s      0.010w      1 calls
HF: Form S/X                :      0.000u      0.000s      0.000w      1 calls
HF: Guess                   :      0.000u      0.000s      0.000w      1 calls
HF: Form G                  :      0.000u      0.000s      0.002w      9 calls
| JK: D                     :      0.000u      0.000s      0.000w      9 calls
| JK: USO2AO                :      0.000u      0.000s      0.000w      9 calls
| JK: JK                    :      0.000u      0.000s      0.001w      9 calls
| | JK: J                   :      0.000u      0.000s      0.000w      9 calls
| | | JK: J1                :      0.000u      0.000s      0.000w     18 calls
| | | JK: J2                :      0.000u      0.000s      0.000w     18 calls
| | JK: K                   :      0.000u      0.000s      0.001w      9 calls
| | | JK: K1                :      0.000u      0.000s      0.001w      9 calls
| | | JK: K2                :      0.000u      0.000s      0.000w      9 calls
| JK: AO2USO                :      0.000u      0.000s      0.000w      9 calls
HF: Form F                  :      0.000u      0.000s      0.000w      9 calls
HF: DIIS                    :      0.017u      0.000s      0.003w      9 calls
| DIISManager::add_entry    :      0.017u      0.000s      0.002w      9 calls
| DIISManager::extrapolate  :      0.000u      0.000s      0.001w      8 calls
| | bMatrix setup           :      0.000u      0.000s      0.000w      8 calls
| | bMatrix pseudoinverse   :      0.000u      0.000s      0.000w      8 calls
| | New vector              :      0.000u      0.000s      0.000w      8 calls
HF: Form C                  :      0.000u      0.000s      0.000w      9 calls
HF: Form D                  :      0.000u      0.000s      0.000w      9 calls

***********************************************************

Host: ed4

Timers On : Mon Feb 19 16:26:47 2018
Timers Off: Mon Feb 19 16:27:25 2018

Wall Time:       37.67 seconds

JK: (A|mn)                  :      0.000u      0.000s      0.001w      1 calls
JK: (A|Q)^-1/2              :      1.217u      0.017s      0.123w      1 calls
JK: (Q|mn)                  :      0.000u      0.000s      0.000w      1 calls
HF: Form H                  :      0.067u      0.000s      0.009w      1 calls
HF: Form S/X                :      0.000u      0.000s      0.000w      1 calls
HF: Guess                   :      0.000u      0.000s      0.000w      1 calls
HF: Form G                  :      0.017u      0.000s      0.001w      9 calls
JK: D                       :      0.000u      0.000s      0.000w      9 calls
JK: USO2AO                  :      0.000u      0.000s      0.000w      9 calls
JK: JK                      :      0.017u      0.000s      0.001w      9 calls
JK: J                       :      0.000u      0.000s      0.000w      9 calls
JK: J1                      :      0.000u      0.000s      0.000w     18 calls
JK: J2                      :      0.000u      0.000s      0.000w     18 calls
JK: K                       :      0.017u      0.000s      0.000w      9 calls
JK: K1                      :      0.017u      0.000s      0.000w      9 calls
JK: K2                      :      0.000u      0.000s      0.000w      9 calls
JK: AO2USO                  :      0.000u      0.000s      0.000w      9 calls
HF: Form F                  :      0.000u      0.000s      0.000w      9 calls
HF: DIIS                    :      0.017u      0.000s      0.002w      9 calls
DIISManager::add_entry      :      0.017u      0.000s      0.001w      9 calls
DIISManager::extrapolate    :      0.000u      0.000s      0.000w      8 calls
bMatrix setup               :      0.000u      0.000s      0.000w      8 calls
bMatrix pseudoinverse       :      0.000u      0.000s      0.000w      8 calls
New vector                  :      0.000u      0.000s      0.000w      8 calls
HF: Form C                  :      0.000u      0.000s      0.000w      9 calls
HF: Form D                  :      0.000u      0.000s      0.000w      9 calls

-----------------------------------------------------------
JK: (A|mn)                  :      0.000u      0.000s      0.001w      1 calls
JK: (A|Q)^-1/2              :      1.217u      0.017s      0.123w      1 calls
JK: (Q|mn)                  :      0.000u      0.000s      0.000w      1 calls
HF: Form H                  :      0.067u      0.000s      0.009w      1 calls
HF: Form S/X                :      0.000u      0.000s      0.000w      1 calls
HF: Guess                   :      0.000u      0.000s      0.000w      1 calls
HF: Form G                  :      0.017u      0.000s      0.001w      9 calls
| JK: D                     :      0.000u      0.000s      0.000w      9 calls
| JK: USO2AO                :      0.000u      0.000s      0.000w      9 calls
| JK: JK                    :      0.017u      0.000s      0.001w      9 calls
| | JK: J                   :      0.000u      0.000s      0.000w      9 calls
| | | JK: J1                :      0.000u      0.000s      0.000w     18 calls
| | | JK: J2                :      0.000u      0.000s      0.000w     18 calls
| | JK: K                   :      0.017u      0.000s      0.000w      9 calls
| | | JK: K1                :      0.017u      0.000s      0.000w      9 calls
| | | JK: K2                :      0.000u      0.000s      0.000w      9 calls
| JK: AO2USO                :      0.000u      0.000s      0.000w      9 calls
HF: Form F                  :      0.000u      0.000s      0.000w      9 calls
HF: DIIS                    :      0.017u      0.000s      0.002w      9 calls
| DIISManager::add_entry    :      0.017u      0.000s      0.001w      9 calls
| DIISManager::extrapolate  :      0.000u      0.000s      0.000w      8 calls
| | bMatrix setup           :      0.000u      0.000s      0.000w      8 calls
| | bMatrix pseudoinverse   :      0.000u      0.000s      0.000w      8 calls
| | New vector              :      0.000u      0.000s      0.000w      8 calls
HF: Form C                  :      0.000u      0.000s      0.000w      9 calls
HF: Form D                  :      0.000u      0.000s      0.000w      9 calls

***********************************************************

Host: ed4

Timers On : Wed Feb 21 10:24:12 2018
Timers Off: Wed Feb 21 10:24:55 2018

Wall Time:       42.88 seconds

JK: (A|mn)                  :      0.000u      0.017s      0.001w      1 calls
JK: (A|Q)^-1/2              :      1.283u      0.017s      0.130w      1 calls
JK: (Q|mn)                  :      0.017u      0.000s      0.000w      1 calls
HF: Form H                  :      0.067u      0.000s      0.008w      1 calls
HF: Form S/X                :      0.000u      0.000s      0.000w      1 calls
HF: Guess                   :      0.000u      0.000s      0.000w      1 calls
HF: Form G                  :      0.017u      0.000s      0.002w      9 calls
JK: D                       :      0.000u      0.000s      0.000w      9 calls
JK: USO2AO                  :      0.017u      0.000s      0.000w      9 calls
JK: JK                      :      0.000u      0.000s      0.001w      9 calls
JK: J                       :      0.000u      0.000s      0.000w      9 calls
JK: J1                      :      0.000u      0.000s      0.000w     18 calls
JK: J2                      :      0.000u      0.000s      0.000w     18 calls
JK: K                       :      0.000u      0.000s      0.001w      9 calls
JK: K1                      :      0.000u      0.000s      0.000w      9 calls
JK: K2                      :      0.000u      0.000s      0.000w      9 calls
JK: AO2USO                  :      0.000u      0.000s      0.000w      9 calls
HF: Form F                  :      0.000u      0.000s      0.000w      9 calls
HF: DIIS                    :      0.033u      0.000s      0.002w      9 calls
DIISManager::add_entry      :      0.017u      0.000s      0.001w      9 calls
DIISManager::extrapolate    :      0.000u      0.000s      0.001w      8 calls
bMatrix setup               :      0.000u      0.000s      0.000w      8 calls
bMatrix pseudoinverse       :      0.000u      0.000s      0.000w      8 calls
New vector                  :      0.000u      0.000s      0.000w      8 calls
HF: Form C                  :      0.000u      0.000s      0.000w      9 calls
HF: Form D                  :      0.000u      0.000s      0.000w      9 calls

-----------------------------------------------------------
JK: (A|mn)                  :      0.000u      0.017s      0.001w      1 calls
JK: (A|Q)^-1/2              :      1.283u      0.017s      0.130w      1 calls
JK: (Q|mn)                  :      0.017u      0.000s      0.000w      1 calls
HF: Form H                  :      0.067u      0.000s      0.008w      1 calls
HF: Form S/X                :      0.000u      0.000s      0.000w      1 calls
HF: Guess                   :      0.000u      0.000s      0.000w      1 calls
HF: Form G                  :      0.017u      0.000s      0.002w      9 calls
| JK: D                     :      0.000u      0.000s      0.000w      9 calls
| JK: USO2AO                :      0.017u      0.000s      0.000w      9 calls
| JK: JK                    :      0.000u      0.000s      0.001w      9 calls
| | JK: J                   :      0.000u      0.000s      0.000w      9 calls
| | | JK: J1                :      0.000u      0.000s      0.000w     18 calls
| | | JK: J2                :      0.000u      0.000s      0.000w     18 calls
| | JK: K                   :      0.000u      0.000s      0.001w      9 calls
| | | JK: K1                :      0.000u      0.000s      0.000w      9 calls
| | | JK: K2                :      0.000u      0.000s      0.000w      9 calls
| JK: AO2USO                :      0.000u      0.000s      0.000w      9 calls
HF: Form F                  :      0.000u      0.000s      0.000w      9 calls
HF: DIIS                    :      0.033u      0.000s      0.002w      9 calls
| DIISManager::add_entry    :      0.017u      0.000s      0.001w      9 calls
| DIISManager::extrapolate  :      0.000u      0.000s      0.001w      8 calls
| | bMatrix setup           :      0.000u      0.000s      0.000w      8 calls
| | bMatrix pseudoinverse   :      0.000u      0.000s      0.000w      8 calls
| | New vector              :      0.000u      0.000s      0.000w      8 calls
HF: Form C                  :      0.000u      0.000s      0.000w      9 calls
HF: Form D                  :      0.000u      0.000s      0.000w      9 calls

***********************************************************

Host: ed4

Timers On : Thu Feb 22 18:10:19 2018
Timers Off: Thu Feb 22 18:11:06 2018

Wall Time:       47.04 seconds

JK: (A|mn)                  :      0.000u      0.000s      0.003w      1 calls
JK: (A|Q)^-1/2              :      0.050u      0.000s      0.032w      1 calls
JK: (Q|mn)                  :      0.000u      0.000s      0.000w      1 calls
HF: Form H                  :      0.000u      0.000s      0.010w      1 calls
HF: Form S/X                :      0.000u      0.000s      0.000w      1 calls
HF: Guess                   :      0.000u      0.000s      0.000w      1 calls
HF: Form G                  :      0.000u      0.000s      0.001w      9 calls
JK: D                       :      0.000u      0.000s      0.000w      9 calls
JK: USO2AO                  :      0.000u      0.000s      0.000w      9 calls
JK: JK                      :      0.000u      0.000s      0.001w      9 calls
JK: J                       :      0.000u      0.000s      0.000w      9 calls
JK: J1                      :      0.000u      0.000s      0.000w     18 calls
JK: J2                      :      0.000u      0.000s      0.000w     18 calls
JK: K                       :      0.000u      0.000s      0.001w      9 calls
JK: K1                      :      0.000u      0.000s      0.000w      9 calls
JK: K2                      :      0.000u      0.000s      0.000w      9 calls
JK: AO2USO                  :      0.000u      0.000s      0.000w      9 calls
HF: Form F                  :      0.000u      0.000s      0.000w      9 calls
HF: DIIS                    :      0.017u      0.000s      0.002w      9 calls
DIISManager::add_entry      :      0.000u      0.000s      0.001w      9 calls
DIISManager::extrapolate    :      0.000u      0.000s      0.000w      8 calls
bMatrix setup               :      0.000u      0.000s      0.000w      8 calls
bMatrix pseudoinverse       :      0.000u      0.000s      0.000w      8 calls
New vector                  :      0.000u      0.000s      0.000w      8 calls
HF: Form C                  :      0.000u      0.000s      0.000w      9 calls
HF: Form D                  :      0.000u      0.000s      0.000w      9 calls

-----------------------------------------------------------
JK: (A|mn)                  :      0.000u      0.000s      0.003w      1 calls
JK: (A|Q)^-1/2              :      0.050u      0.000s      0.032w      1 calls
JK: (Q|mn)                  :      0.000u      0.000s      0.000w      1 calls
HF: Form H                  :      0.000u      0.000s      0.010w      1 calls
HF: Form S/X                :      0.000u      0.000s      0.000w      1 calls
HF: Guess                   :      0.000u      0.000s      0.000w      1 calls
HF: Form G                  :      0.000u      0.000s      0.001w      9 calls
| JK: D                     :      0.000u      0.000s      0.000w      9 calls
| JK: USO2AO                :      0.000u      0.000s      0.000w      9 calls
| JK: JK                    :      0.000u      0.000s      0.001w      9 calls
| | JK: J                   :      0.000u      0.000s      0.000w      9 calls
| | | JK: J1                :      0.000u      0.000s      0.000w     18 calls
| | | JK: J2                :      0.000u      0.000s      0.000w     18 calls
| | JK: K                   :      0.000u      0.000s      0.001w      9 calls
| | | JK: K1                :      0.000u      0.000s      0.000w      9 calls
| | | JK: K2                :      0.000u      0.000s      0.000w      9 calls
| JK: AO2USO                :      0.000u      0.000s      0.000w      9 calls
HF: Form F                  :      0.000u      0.000s      0.000w      9 calls
HF: DIIS                    :      0.017u      0.000s      0.002w      9 calls
| DIISManager::add_entry    :      0.000u      0.000s      0.001w      9 calls
| DIISManager::extrapolate  :      0.000u      0.000s      0.000w      8 calls
| | bMatrix setup           :      0.000u      0.000s      0.000w      8 calls
| | bMatrix pseudoinverse   :      0.000u      0.000s      0.000w      8 calls
| | New vector              :      0.000u      0.000s      0.000w      8 calls
HF: Form C                  :      0.000u      0.000s      0.000w      9 calls
HF: Form D                  :      0.000u      0.000s      0.000w      9 calls

***********************************************************

Host: ed4

Timers On : Thu Feb 22 18:15:31 2018
Timers Off: Thu Feb 22 18:16:18 2018

Wall Time:       46.36 seconds

JK: (A|mn)                  :      0.000u      0.000s      0.001w      1 calls
JK: (A|Q)^-1/2              :      1.167u      0.083s      0.124w      1 calls
JK: (Q|mn)                  :      0.000u      0.000s      0.000w      1 calls
HF: Form H                  :      0.067u      0.000s      0.009w      1 calls
HF: Form S/X                :      0.000u      0.000s      0.000w      1 calls
HF: Guess                   :      0.017u      0.000s      0.000w      1 calls
HF: Form G                  :      0.000u      0.000s      0.002w      9 calls
JK: D                       :      0.000u      0.000s      0.000w      9 calls
JK: USO2AO                  :      0.000u      0.000s      0.000w      9 calls
JK: JK                      :      0.000u      0.000s      0.001w      9 calls
JK: J                       :      0.000u      0.000s      0.000w      9 calls
JK: J1                      :      0.000u      0.000s      0.000w     18 calls
JK: J2                      :      0.000u      0.000s      0.000w     18 calls
JK: K                       :      0.000u      0.000s      0.001w      9 calls
JK: K1                      :      0.000u      0.000s      0.000w      9 calls
JK: K2                      :      0.000u      0.000s      0.000w      9 calls
JK: AO2USO                  :      0.000u      0.000s      0.000w      9 calls
HF: Form F                  :      0.033u      0.000s      0.000w      9 calls
HF: DIIS                    :      0.000u      0.000s      0.002w      9 calls
DIISManager::add_entry      :      0.000u      0.000s      0.002w      9 calls
DIISManager::extrapolate    :      0.000u      0.000s      0.000w      8 calls
bMatrix setup               :      0.000u      0.000s      0.000w      8 calls
bMatrix pseudoinverse       :      0.000u      0.000s      0.000w      8 calls
New vector                  :      0.000u      0.000s      0.000w      8 calls
HF: Form C                  :      0.000u      0.000s      0.000w      9 calls
HF: Form D                  :      0.000u      0.000s      0.000w      9 calls

-----------------------------------------------------------
JK: (A|mn)                  :      0.000u      0.000s      0.001w      1 calls
JK: (A|Q)^-1/2              :      1.167u      0.083s      0.124w      1 calls
JK: (Q|mn)                  :      0.000u      0.000s      0.000w      1 calls
HF: Form H                  :      0.067u      0.000s      0.009w      1 calls
HF: Form S/X                :      0.000u      0.000s      0.000w      1 calls
HF: Guess                   :      0.017u      0.000s      0.000w      1 calls
HF: Form G                  :      0.000u      0.000s      0.002w      9 calls
| JK: D                     :      0.000u      0.000s      0.000w      9 calls
| JK: USO2AO                :      0.000u      0.000s      0.000w      9 calls
| JK: JK                    :      0.000u      0.000s      0.001w      9 calls
| | JK: J                   :      0.000u      0.000s      0.000w      9 calls
| | | JK: J1                :      0.000u      0.000s      0.000w     18 calls
| | | JK: J2                :      0.000u      0.000s      0.000w     18 calls
| | JK: K                   :      0.000u      0.000s      0.001w      9 calls
| | | JK: K1                :      0.000u      0.000s      0.000w      9 calls
| | | JK: K2                :      0.000u      0.000s      0.000w      9 calls
| JK: AO2USO                :      0.000u      0.000s      0.000w      9 calls
HF: Form F                  :      0.033u      0.000s      0.000w      9 calls
HF: DIIS                    :      0.000u      0.000s      0.002w      9 calls
| DIISManager::add_entry    :      0.000u      0.000s      0.002w      9 calls
| DIISManager::extrapolate  :      0.000u      0.000s      0.000w      8 calls
| | bMatrix setup           :      0.000u      0.000s      0.000w      8 calls
| | bMatrix pseudoinverse   :      0.000u      0.000s      0.000w      8 calls
| | New vector              :      0.000u      0.000s      0.000w      8 calls
HF: Form C                  :      0.000u      0.000s      0.000w      9 calls
HF: Form D                  :      0.000u      0.000s      0.000w      9 calls

***********************************************************

Host: ed4

Timers On : Thu Feb 22 18:22:53 2018
Timers Off: Thu Feb 22 18:23:46 2018

Wall Time:       52.86 seconds

JK: (A|mn)                  :      0.017u      0.000s      0.001w      1 calls
JK: (A|Q)^-1/2              :      1.283u      0.067s      0.135w      1 calls
JK: (Q|mn)                  :      0.000u      0.000s      0.000w      1 calls
HF: Form H                  :      0.067u      0.000s      0.009w      1 calls
HF: Form S/X                :      0.000u      0.000s      0.000w      1 calls
HF: Guess                   :      0.000u      0.000s      0.000w      1 calls
HF: Form G                  :      0.017u      0.000s      0.002w      9 calls
JK: D                       :      0.000u      0.000s      0.000w      9 calls
JK: USO2AO                  :      0.000u      0.000s      0.000w      9 calls
JK: JK                      :      0.017u      0.000s      0.001w      9 calls
JK: J                       :      0.000u      0.000s      0.000w      9 calls
JK: J1                      :      0.000u      0.000s      0.000w     18 calls
JK: J2                      :      0.000u      0.000s      0.000w     18 calls
JK: K                       :      0.000u      0.000s      0.001w      9 calls
JK: K1                      :      0.000u      0.000s      0.000w      9 calls
JK: K2                      :      0.000u      0.000s      0.000w      9 calls
JK: AO2USO                  :      0.000u      0.000s      0.000w      9 calls
HF: Form F                  :      0.017u      0.000s      0.000w      9 calls
HF: DIIS                    :      0.017u      0.033s      0.003w      9 calls
DIISManager::add_entry      :      0.000u      0.017s      0.002w      9 calls
DIISManager::extrapolate    :      0.000u      0.000s      0.001w      8 calls
bMatrix setup               :      0.000u      0.000s      0.000w      8 calls
bMatrix pseudoinverse       :      0.000u      0.000s      0.000w      8 calls
New vector                  :      0.000u      0.000s      0.000w      8 calls
HF: Form C                  :      0.000u      0.000s      0.000w      9 calls
HF: Form D                  :      0.000u      0.000s      0.000w      9 calls

-----------------------------------------------------------
JK: (A|mn)                  :      0.017u      0.000s      0.001w      1 calls
JK: (A|Q)^-1/2              :      1.283u      0.067s      0.135w      1 calls
JK: (Q|mn)                  :      0.000u      0.000s      0.000w      1 calls
HF: Form H                  :      0.067u      0.000s      0.009w      1 calls
HF: Form S/X                :      0.000u      0.000s      0.000w      1 calls
HF: Guess                   :      0.000u      0.000s      0.000w      1 calls
HF: Form G                  :      0.017u      0.000s      0.002w      9 calls
| JK: D                     :      0.000u      0.000s      0.000w      9 calls
| JK: USO2AO                :      0.000u      0.000s      0.000w      9 calls
| JK: JK                    :      0.017u      0.000s      0.001w      9 calls
| | JK: J                   :      0.000u      0.000s      0.000w      9 calls
| | | JK: J1                :      0.000u      0.000s      0.000w     18 calls
| | | JK: J2                :      0.000u      0.000s      0.000w     18 calls
| | JK: K                   :      0.000u      0.000s      0.001w      9 calls
| | | JK: K1                :      0.000u      0.000s      0.000w      9 calls
| | | JK: K2                :      0.000u      0.000s      0.000w      9 calls
| JK: AO2USO                :      0.000u      0.000s      0.000w      9 calls
HF: Form F                  :      0.017u      0.000s      0.000w      9 calls
HF: DIIS                    :      0.017u      0.033s      0.003w      9 calls
| DIISManager::add_entry    :      0.000u      0.017s      0.002w      9 calls
| DIISManager::extrapolate  :      0.000u      0.000s      0.001w      8 calls
| | bMatrix setup           :      0.000u      0.000s      0.000w      8 calls
| | bMatrix pseudoinverse   :      0.000u      0.000s      0.000w      8 calls
| | New vector              :      0.000u      0.000s      0.000w      8 calls
HF: Form C                  :      0.000u      0.000s      0.000w      9 calls
HF: Form D                  :      0.000u      0.000s      0.000w      9 calls

***********************************************************

Host: ed4

Timers On : Thu Feb 22 18:28:48 2018
Timers Off: Thu Feb 22 18:29:49 2018

Wall Time:       60.98 seconds

JK: (A|mn)                  :      0.200u      0.000s      0.029w      1 calls
JK: (A|Q)^-1/2              :      1.683u      0.017s      0.209w      1 calls
JK: (Q|mn)                  :      0.000u      0.000s      0.000w      1 calls
HF: Form H                  :      0.083u      0.000s      0.011w      1 calls
HF: Form S/X                :      0.000u      0.000s      0.000w      1 calls
HF: Guess                   :      0.000u      0.000s      0.000w      1 calls
HF: Form G                  :      0.050u      0.000s      0.004w      9 calls
JK: D                       :      0.000u      0.000s      0.000w      9 calls
JK: USO2AO                  :      0.000u      0.000s      0.000w      9 calls
JK: JK                      :      0.017u      0.000s      0.002w      9 calls
JK: J                       :      0.000u      0.000s      0.000w      9 calls
JK: J1                      :      0.000u      0.000s      0.000w     18 calls
JK: J2                      :      0.000u      0.000s      0.000w     18 calls
JK: K                       :      0.017u      0.000s      0.001w      9 calls
JK: K1                      :      0.017u      0.000s      0.001w      9 calls
JK: K2                      :      0.000u      0.000s      0.001w      9 calls
JK: AO2USO                  :      0.000u      0.000s      0.000w      9 calls
HF: Form F                  :      0.000u      0.000s      0.001w      9 calls
HF: DIIS                    :      0.017u      0.000s      0.004w      9 calls
DIISManager::add_entry      :      0.017u      0.000s      0.002w      9 calls
DIISManager::extrapolate    :      0.000u      0.000s      0.001w      8 calls
bMatrix setup               :      0.000u      0.000s      0.000w      8 calls
bMatrix pseudoinverse       :      0.000u      0.000s      0.000w      8 calls
New vector                  :      0.000u      0.000s      0.000w      8 calls
HF: Form C                  :      0.000u      0.000s      0.000w      9 calls
HF: Form D                  :      0.000u      0.000s      0.001w      9 calls

-----------------------------------------------------------
JK: (A|mn)                  :      0.200u      0.000s      0.029w      1 calls
JK: (A|Q)^-1/2              :      1.683u      0.017s      0.209w      1 calls
JK: (Q|mn)                  :      0.000u      0.000s      0.000w      1 calls
HF: Form H                  :      0.083u      0.000s      0.011w      1 calls
HF: Form S/X                :      0.000u      0.000s      0.000w      1 calls
HF: Guess                   :      0.000u      0.000s      0.000w      1 calls
HF: Form G                  :      0.050u      0.000s      0.004w      9 calls
| JK: D                     :      0.000u      0.000s      0.000w      9 calls
| JK: USO2AO                :      0.000u      0.000s      0.000w      9 calls
| JK: JK                    :      0.017u      0.000s      0.002w      9 calls
| | JK: J                   :      0.000u      0.000s      0.000w      9 calls
| | | JK: J1                :      0.000u      0.000s      0.000w     18 calls
| | | JK: J2                :      0.000u      0.000s      0.000w     18 calls
| | JK: K                   :      0.017u      0.000s      0.001w      9 calls
| | | JK: K1                :      0.017u      0.000s      0.001w      9 calls
| | | JK: K2                :      0.000u      0.000s      0.001w      9 calls
| JK: AO2USO                :      0.000u      0.000s      0.000w      9 calls
HF: Form F                  :      0.000u      0.000s      0.001w      9 calls
HF: DIIS                    :      0.017u      0.000s      0.004w      9 calls
| DIISManager::add_entry    :      0.017u      0.000s      0.002w      9 calls
| DIISManager::extrapolate  :      0.000u      0.000s      0.001w      8 calls
| | bMatrix setup           :      0.000u      0.000s      0.000w      8 calls
| | bMatrix pseudoinverse   :      0.000u      0.000s      0.000w      8 calls
| | New vector              :      0.000u      0.000s      0.000w      8 calls
HF: Form C                  :      0.000u      0.000s      0.000w      9 calls
HF: Form D                  :      0.000u      0.000s      0.001w      9 calls

***********************************************************

Host: ed4

Timers On : Thu Feb 22 18:35:09 2018
Timers Off: Thu Feb 22 18:36:51 2018

Wall Time:      102.03 seconds

JK: (A|mn)                  :      0.000u      0.000s      0.002w      1 calls
JK: (A|Q)^-1/2              :      0.883u      0.067s      0.138w      1 calls
JK: (Q|mn)                  :      0.000u      0.000s      0.000w      1 calls
HF: Form H                  :      0.100u      0.000s      0.013w      1 calls
HF: Form S/X                :      0.000u      0.000s      0.000w      1 calls
HF: Guess                   :      0.000u      0.017s      0.000w      1 calls
HF: Form G                  :      0.017u      0.000s      0.004w      9 calls
JK: D                       :      0.000u      0.000s      0.000w      9 calls
JK: USO2AO                  :      0.000u      0.000s      0.000w      9 calls
JK: JK                      :      0.017u      0.000s      0.003w      9 calls
JK: J                       :      0.000u      0.000s      0.000w      9 calls
JK: J1                      :      0.000u      0.000s      0.000w     18 calls
JK: J2                      :      0.000u      0.000s      0.000w     18 calls
JK: K                       :      0.017u      0.000s      0.002w      9 calls
JK: K1                      :      0.017u      0.000s      0.001w      9 calls
JK: K2                      :      0.000u      0.000s      0.001w      9 calls
JK: AO2USO                  :      0.000u      0.000s      0.000w      9 calls
HF: Form F                  :      0.000u      0.000s      0.001w      9 calls
HF: DIIS                    :      0.017u      0.000s      0.005w      9 calls
DIISManager::add_entry      :      0.000u      0.000s      0.002w      9 calls
DIISManager::extrapolate    :      0.000u      0.000s      0.001w      8 calls
bMatrix setup               :      0.000u      0.000s      0.000w      8 calls
bMatrix pseudoinverse       :      0.000u      0.000s      0.000w      8 calls
New vector                  :      0.000u      0.000s      0.000w      8 calls
HF: Form C                  :      0.000u      0.000s      0.000w      9 calls
HF: Form D                  :      0.017u      0.000s      0.001w      9 calls

-----------------------------------------------------------
JK: (A|mn)                  :      0.000u      0.000s      0.002w      1 calls
JK: (A|Q)^-1/2              :      0.883u      0.067s      0.138w      1 calls
JK: (Q|mn)                  :      0.000u      0.000s      0.000w      1 calls
HF: Form H                  :      0.100u      0.000s      0.013w      1 calls
HF: Form S/X                :      0.000u      0.000s      0.000w      1 calls
HF: Guess                   :      0.000u      0.017s      0.000w      1 calls
HF: Form G                  :      0.017u      0.000s      0.004w      9 calls
| JK: D                     :      0.000u      0.000s      0.000w      9 calls
| JK: USO2AO                :      0.000u      0.000s      0.000w      9 calls
| JK: JK                    :      0.017u      0.000s      0.003w      9 calls
| | JK: J                   :      0.000u      0.000s      0.000w      9 calls
| | | JK: J1                :      0.000u      0.000s      0.000w     18 calls
| | | JK: J2                :      0.000u      0.000s      0.000w     18 calls
| | JK: K                   :      0.017u      0.000s      0.002w      9 calls
| | | JK: K1                :      0.017u      0.000s      0.001w      9 calls
| | | JK: K2                :      0.000u      0.000s      0.001w      9 calls
| JK: AO2USO                :      0.000u      0.000s      0.000w      9 calls
HF: Form F                  :      0.000u      0.000s      0.001w      9 calls
HF: DIIS                    :      0.017u      0.000s      0.005w      9 calls
| DIISManager::add_entry    :      0.000u      0.000s      0.002w      9 calls
| DIISManager::extrapolate  :      0.000u      0.000s      0.001w      8 calls
| | bMatrix setup           :      0.000u      0.000s      0.000w      8 calls
| | bMatrix pseudoinverse   :      0.000u      0.000s      0.000w      8 calls
| | New vector              :      0.000u      0.000s      0.000w      8 calls
HF: Form C                  :      0.000u      0.000s      0.000w      9 calls
HF: Form D                  :      0.017u      0.000s      0.001w      9 calls

***********************************************************

Host: ed4

Timers On : Thu Feb 22 18:42:24 2018
Timers Off: Thu Feb 22 18:43:08 2018

Wall Time:       44.21 seconds

JK: (A|mn)                  :      0.000u      0.017s      0.001w      1 calls
JK: (A|Q)^-1/2              :      1.167u      0.050s      0.123w      1 calls
JK: (Q|mn)                  :      0.000u      0.000s      0.000w      1 calls
HF: Form H                  :      0.050u      0.017s      0.008w      1 calls
HF: Form S/X                :      0.000u      0.000s      0.000w      1 calls
HF: Guess                   :      0.000u      0.000s      0.000w      1 calls
HF: Form G                  :      0.000u      0.000s      0.002w      9 calls
JK: D                       :      0.000u      0.000s      0.000w      9 calls
JK: USO2AO                  :      0.000u      0.000s      0.000w      9 calls
JK: JK                      :      0.000u      0.000s      0.001w      9 calls
JK: J                       :      0.000u      0.000s      0.000w      9 calls
JK: J1                      :      0.000u      0.000s      0.000w     18 calls
JK: J2                      :      0.000u      0.000s      0.000w     18 calls
JK: K                       :      0.000u      0.000s      0.001w      9 calls
JK: K1                      :      0.000u      0.000s      0.000w      9 calls
JK: K2                      :      0.000u      0.000s      0.000w      9 calls
JK: AO2USO                  :      0.000u      0.000s      0.000w      9 calls
HF: Form F                  :      0.000u      0.000s      0.000w      9 calls
HF: DIIS                    :      0.033u      0.000s      0.002w      9 calls
DIISManager::add_entry      :      0.017u      0.000s      0.002w      9 calls
DIISManager::extrapolate    :      0.017u      0.000s      0.001w      8 calls
bMatrix setup               :      0.000u      0.000s      0.000w      8 calls
bMatrix pseudoinverse       :      0.017u      0.000s      0.000w      8 calls
New vector                  :      0.000u      0.000s      0.000w      8 calls
HF: Form C                  :      0.017u      0.000s      0.000w      9 calls
HF: Form D                  :      0.000u      0.000s      0.000w      9 calls

-----------------------------------------------------------
JK: (A|mn)                  :      0.000u      0.017s      0.001w      1 calls
JK: (A|Q)^-1/2              :      1.167u      0.050s      0.123w      1 calls
JK: (Q|mn)                  :      0.000u      0.000s      0.000w      1 calls
HF: Form H                  :      0.050u      0.017s      0.008w      1 calls
HF: Form S/X                :      0.000u      0.000s      0.000w      1 calls
HF: Guess                   :      0.000u      0.000s      0.000w      1 calls
HF: Form G                  :      0.000u      0.000s      0.002w      9 calls
| JK: D                     :      0.000u      0.000s      0.000w      9 calls
| JK: USO2AO                :      0.000u      0.000s      0.000w      9 calls
| JK: JK                    :      0.000u      0.000s      0.001w      9 calls
| | JK: J                   :      0.000u      0.000s      0.000w      9 calls
| | | JK: J1                :      0.000u      0.000s      0.000w     18 calls
| | | JK: J2                :      0.000u      0.000s      0.000w     18 calls
| | JK: K                   :      0.000u      0.000s      0.001w      9 calls
| | | JK: K1                :      0.000u      0.000s      0.000w      9 calls
| | | JK: K2                :      0.000u      0.000s      0.000w      9 calls
| JK: AO2USO                :      0.000u      0.000s      0.000w      9 calls
HF: Form F                  :      0.000u      0.000s      0.000w      9 calls
HF: DIIS                    :      0.033u      0.000s      0.002w      9 calls
| DIISManager::add_entry    :      0.017u      0.000s      0.002w      9 calls
| DIISManager::extrapolate  :      0.017u      0.000s      0.001w      8 calls
| | bMatrix setup           :      0.000u      0.000s      0.000w      8 calls
| | bMatrix pseudoinverse   :      0.017u      0.000s      0.000w      8 calls
| | New vector              :      0.000u      0.000s      0.000w      8 calls
HF: Form C                  :      0.017u      0.000s      0.000w      9 calls
HF: Form D                  :      0.000u      0.000s      0.000w      9 calls

***********************************************************

Host: ed4

Timers On : Mon Feb 26 10:22:57 2018
Timers Off: Mon Feb 26 10:23:38 2018

Wall Time:       41.93 seconds

JK: (A|mn)                  :      0.000u      0.000s      0.001w      1 calls
JK: (A|Q)^-1/2              :      1.200u      0.050s      0.124w      1 calls
JK: (Q|mn)                  :      0.000u      0.000s      0.000w      1 calls
HF: Form H                  :      0.067u      0.000s      0.009w      1 calls
HF: Form S/X                :      0.000u      0.017s      0.000w      1 calls
HF: Guess                   :      0.000u      0.000s      0.000w      1 calls
HF: Form G                  :      0.000u      0.000s      0.002w      9 calls
JK: D                       :      0.000u      0.000s      0.000w      9 calls
JK: USO2AO                  :      0.000u      0.000s      0.000w      9 calls
JK: JK                      :      0.000u      0.000s      0.001w      9 calls
JK: J                       :      0.000u      0.000s      0.000w      9 calls
JK: J1                      :      0.000u      0.000s      0.000w     18 calls
JK: J2                      :      0.000u      0.000s      0.000w     18 calls
JK: K                       :      0.000u      0.000s      0.000w      9 calls
JK: K1                      :      0.000u      0.000s      0.000w      9 calls
JK: K2                      :      0.000u      0.000s      0.000w      9 calls
JK: AO2USO                  :      0.000u      0.000s      0.000w      9 calls
HF: Form F                  :      0.000u      0.000s      0.000w      9 calls
HF: DIIS                    :      0.017u      0.000s      0.002w      9 calls
DIISManager::add_entry      :      0.017u      0.000s      0.001w      9 calls
DIISManager::extrapolate    :      0.000u      0.000s      0.001w      8 calls
bMatrix setup               :      0.000u      0.000s      0.000w      8 calls
bMatrix pseudoinverse       :      0.000u      0.000s      0.000w      8 calls
New vector                  :      0.000u      0.000s      0.000w      8 calls
HF: Form C                  :      0.017u      0.000s      0.000w      9 calls
HF: Form D                  :      0.000u      0.000s      0.000w      9 calls

-----------------------------------------------------------
JK: (A|mn)                  :      0.000u      0.000s      0.001w      1 calls
JK: (A|Q)^-1/2              :      1.200u      0.050s      0.124w      1 calls
JK: (Q|mn)                  :      0.000u      0.000s      0.000w      1 calls
HF: Form H                  :      0.067u      0.000s      0.009w      1 calls
HF: Form S/X                :      0.000u      0.017s      0.000w      1 calls
HF: Guess                   :      0.000u      0.000s      0.000w      1 calls
HF: Form G                  :      0.000u      0.000s      0.002w      9 calls
| JK: D                     :      0.000u      0.000s      0.000w      9 calls
| JK: USO2AO                :      0.000u      0.000s      0.000w      9 calls
| JK: JK                    :      0.000u      0.000s      0.001w      9 calls
| | JK: J                   :      0.000u      0.000s      0.000w      9 calls
| | | JK: J1                :      0.000u      0.000s      0.000w     18 calls
| | | JK: J2                :      0.000u      0.000s      0.000w     18 calls
| | JK: K                   :      0.000u      0.000s      0.000w      9 calls
| | | JK: K1                :      0.000u      0.000s      0.000w      9 calls
| | | JK: K2                :      0.000u      0.000s      0.000w      9 calls
| JK: AO2USO                :      0.000u      0.000s      0.000w      9 calls
HF: Form F                  :      0.000u      0.000s      0.000w      9 calls
HF: DIIS                    :      0.017u      0.000s      0.002w      9 calls
| DIISManager::add_entry    :      0.017u      0.000s      0.001w      9 calls
| DIISManager::extrapolate  :      0.000u      0.000s      0.001w      8 calls
| | bMatrix setup           :      0.000u      0.000s      0.000w      8 calls
| | bMatrix pseudoinverse   :      0.000u      0.000s      0.000w      8 calls
| | New vector              :      0.000u      0.000s      0.000w      8 calls
HF: Form C                  :      0.017u      0.000s      0.000w      9 calls
HF: Form D                  :      0.000u      0.000s      0.000w      9 calls

***********************************************************

Host: ed4

Timers On : Tue May  1 13:01:27 2018
Timers Off: Tue May  1 13:02:15 2018

Wall Time:       48.19 seconds

JK: (A|mn)                  :      0.017u      0.000s      0.005w      1 calls
JK: (A|Q)^-1/2              :      0.067u      0.000s      0.041w      1 calls
JK: (Q|mn)                  :      0.000u      0.000s      0.000w      1 calls
HF: Form H                  :      0.000u      0.000s      0.010w      1 calls
HF: Form S/X                :      0.000u      0.000s      0.000w      1 calls
HF: Guess                   :      0.000u      0.000s      0.000w      1 calls
HF: Form G                  :      0.000u      0.000s      0.002w      9 calls
JK: D                       :      0.000u      0.000s      0.000w      9 calls
JK: USO2AO                  :      0.000u      0.000s      0.000w      9 calls
JK: JK                      :      0.000u      0.000s      0.001w      9 calls
JK: J                       :      0.000u      0.000s      0.000w      9 calls
JK: J1                      :      0.000u      0.000s      0.000w     18 calls
JK: J2                      :      0.000u      0.000s      0.000w     18 calls
JK: K                       :      0.000u      0.000s      0.001w      9 calls
JK: K1                      :      0.000u      0.000s      0.001w      9 calls
JK: K2                      :      0.000u      0.000s      0.000w      9 calls
JK: AO2USO                  :      0.000u      0.000s      0.000w      9 calls
HF: Form F                  :      0.000u      0.000s      0.000w      9 calls
HF: DIIS                    :      0.000u      0.000s      0.002w      9 calls
DIISManager::add_entry      :      0.000u      0.000s      0.002w      9 calls
DIISManager::extrapolate    :      0.000u      0.000s      0.001w      8 calls
bMatrix setup               :      0.000u      0.000s      0.000w      8 calls
bMatrix pseudoinverse       :      0.000u      0.000s      0.000w      8 calls
New vector                  :      0.000u      0.000s      0.000w      8 calls
HF: Form C                  :      0.000u      0.000s      0.000w      9 calls
HF: Form D                  :      0.000u      0.000s      0.000w      9 calls

-----------------------------------------------------------
JK: (A|mn)                  :      0.017u      0.000s      0.005w      1 calls
JK: (A|Q)^-1/2              :      0.067u      0.000s      0.041w      1 calls
JK: (Q|mn)                  :      0.000u      0.000s      0.000w      1 calls
HF: Form H                  :      0.000u      0.000s      0.010w      1 calls
HF: Form S/X                :      0.000u      0.000s      0.000w      1 calls
HF: Guess                   :      0.000u      0.000s      0.000w      1 calls
HF: Form G                  :      0.000u      0.000s      0.002w      9 calls
| JK: D                     :      0.000u      0.000s      0.000w      9 calls
| JK: USO2AO                :      0.000u      0.000s      0.000w      9 calls
| JK: JK                    :      0.000u      0.000s      0.001w      9 calls
| | JK: J                   :      0.000u      0.000s      0.000w      9 calls
| | | JK: J1                :      0.000u      0.000s      0.000w     18 calls
| | | JK: J2                :      0.000u      0.000s      0.000w     18 calls
| | JK: K                   :      0.000u      0.000s      0.001w      9 calls
| | | JK: K1                :      0.000u      0.000s      0.001w      9 calls
| | | JK: K2                :      0.000u      0.000s      0.000w      9 calls
| JK: AO2USO                :      0.000u      0.000s      0.000w      9 calls
HF: Form F                  :      0.000u      0.000s      0.000w      9 calls
HF: DIIS                    :      0.000u      0.000s      0.002w      9 calls
| DIISManager::add_entry    :      0.000u      0.000s      0.002w      9 calls
| DIISManager::extrapolate  :      0.000u      0.000s      0.001w      8 calls
| | bMatrix setup           :      0.000u      0.000s      0.000w      8 calls
| | bMatrix pseudoinverse   :      0.000u      0.000s      0.000w      8 calls
| | New vector              :      0.000u      0.000s      0.000w      8 calls
HF: Form C                  :      0.000u      0.000s      0.000w      9 calls
HF: Form D                  :      0.000u      0.000s      0.000w      9 calls

***********************************************************

Host: ed4

Timers On : Tue May  1 13:02:24 2018
Timers Off: Tue May  1 13:03:12 2018

Wall Time:       48.09 seconds

JK: (A|mn)                  :      0.000u      0.000s      0.005w      1 calls
JK: (A|Q)^-1/2              :      0.083u      0.000s      0.044w      1 calls
JK: (Q|mn)                  :      0.000u      0.000s      0.000w      1 calls
HF: Form H                  :      0.000u      0.000s      0.010w      1 calls
HF: Form S/X                :      0.000u      0.000s      0.000w      1 calls
HF: Guess                   :      0.000u      0.000s      0.000w      1 calls
HF: Form G                  :      0.000u      0.000s      0.002w      9 calls
JK: D                       :      0.000u      0.000s      0.000w      9 calls
JK: USO2AO                  :      0.000u      0.000s      0.000w      9 calls
JK: JK                      :      0.000u      0.000s      0.001w      9 calls
JK: J                       :      0.000u      0.000s      0.000w      9 calls
JK: J1                      :      0.000u      0.000s      0.000w     18 calls
JK: J2                      :      0.000u      0.000s      0.000w     18 calls
JK: K                       :      0.000u      0.000s      0.001w      9 calls
JK: K1                      :      0.000u      0.000s      0.001w      9 calls
JK: K2                      :      0.000u      0.000s      0.000w      9 calls
JK: AO2USO                  :      0.000u      0.000s      0.000w      9 calls
HF: Form F                  :      0.000u      0.000s      0.000w      9 calls
HF: DIIS                    :      0.000u      0.000s      0.003w      9 calls
DIISManager::add_entry      :      0.000u      0.000s      0.002w      9 calls
DIISManager::extrapolate    :      0.000u      0.000s      0.001w      8 calls
bMatrix setup               :      0.000u      0.000s      0.000w      8 calls
bMatrix pseudoinverse       :      0.000u      0.000s      0.000w      8 calls
New vector                  :      0.000u      0.000s      0.000w      8 calls
HF: Form C                  :      0.000u      0.000s      0.000w      9 calls
HF: Form D                  :      0.000u      0.000s      0.000w      9 calls

-----------------------------------------------------------
JK: (A|mn)                  :      0.000u      0.000s      0.005w      1 calls
JK: (A|Q)^-1/2              :      0.083u      0.000s      0.044w      1 calls
JK: (Q|mn)                  :      0.000u      0.000s      0.000w      1 calls
HF: Form H                  :      0.000u      0.000s      0.010w      1 calls
HF: Form S/X                :      0.000u      0.000s      0.000w      1 calls
HF: Guess                   :      0.000u      0.000s      0.000w      1 calls
HF: Form G                  :      0.000u      0.000s      0.002w      9 calls
| JK: D                     :      0.000u      0.000s      0.000w      9 calls
| JK: USO2AO                :      0.000u      0.000s      0.000w      9 calls
| JK: JK                    :      0.000u      0.000s      0.001w      9 calls
| | JK: J                   :      0.000u      0.000s      0.000w      9 calls
| | | JK: J1                :      0.000u      0.000s      0.000w     18 calls
| | | JK: J2                :      0.000u      0.000s      0.000w     18 calls
| | JK: K                   :      0.000u      0.000s      0.001w      9 calls
[...]
HF: Form H                  :      0.000u      0.000s      0.012w      1 calls
HF: Form S/X                :      0.000u      0.000s      0.000w      1 calls
HF: Guess                   :      0.200u      0.017s      0.127w      1 calls
| SAD Guess                 :      0.183u      0.017s      0.120w      1 calls
HF: Form G                  :      0.000u      0.000s      0.001w      7 calls
| JK: D                     :      0.000u      0.000s      0.000w      7 calls
| JK: USO2AO                :      0.000u      0.000s      0.000w      7 calls
| JK: JK                    :      0.000u      0.000s      0.000w      7 calls
| | JK: J                   :      0.000u      0.000s      0.000w      7 calls
| | | JK: J1                :      0.000u      0.000s      0.000w      7 calls
| | | JK: J2                :      0.000u      0.000s      0.000w      7 calls
| | JK: K                   :      0.000u      0.000s      0.000w      7 calls
| | | JK: K1                :      0.000u      0.000s      0.000w      7 calls
| | | JK: K2                :      0.000u      0.000s      0.000w      7 calls
| JK: AO2USO                :      0.000u      0.000s      0.000w      7 calls
HF: Form F                  :      0.000u      0.000s      0.000w      7 calls
HF: DIIS                    :      0.000u      0.000s      0.002w      7 calls
| DIISManager::add_entry    :      0.000u      0.000s      0.002w      6 calls
| DIISManager::extrapolate  :      0.000u      0.000s      0.000w      5 calls
| | bMatrix setup           :      0.000u      0.000s      0.000w      5 calls
| | bMatrix pseudoinverse   :      0.000u      0.000s      0.000w      5 calls
| | New vector              :      0.000u      0.000s      0.000w      5 calls
HF: Form C                  :      0.000u      0.000s      0.000w      7 calls
HF: Form D                  :      0.000u      0.000s      0.000w      7 calls

***********************************************************

Host: ed4

Timers On : Tue Dec  4 11:56:35 2018
Timers Off: Tue Dec  4 11:57:55 2018

Wall Time:       79.10 seconds

JK: (A|mn)                  :      0.000u      0.000s      0.003w      1 calls
JK: (A|Q)^-1/2              :      0.050u      0.000s      0.024w      1 calls
JK: (Q|mn)                  :      0.000u      0.000s      0.000w      1 calls
HF: Form H                  :      0.000u      0.000s      0.011w      1 calls
HF: Form S/X                :      0.000u      0.000s      0.000w      1 calls
HF: Guess                   :      0.183u      0.000s      0.129w      1 calls
SAD Guess                   :      0.183u      0.000s      0.123w      1 calls
HF: Form G                  :      0.000u      0.000s      0.001w     10 calls
JK: D                       :      0.000u      0.000s      0.000w     10 calls
JK: USO2AO                  :      0.000u      0.000s      0.000w     10 calls
JK: JK                      :      0.000u      0.000s      0.001w     10 calls
JK: J                       :      0.000u      0.000s      0.000w     10 calls
JK: J1                      :      0.000u      0.000s      0.000w     10 calls
JK: J2                      :      0.000u      0.000s      0.000w     10 calls
JK: K                       :      0.000u      0.000s      0.001w     10 calls
JK: K1                      :      0.000u      0.000s      0.001w     10 calls
JK: K2                      :      0.000u      0.000s      0.000w     10 calls
JK: AO2USO                  :      0.000u      0.000s      0.000w     10 calls
HF: Form F                  :      0.000u      0.000s      0.000w     10 calls
HF: DIIS                    :      0.000u      0.000s      0.003w     10 calls
DIISManager::add_entry      :      0.000u      0.000s      0.002w      9 calls
DIISManager::extrapolate    :      0.000u      0.000s      0.000w      8 calls
bMatrix setup               :      0.000u      0.000s      0.000w      8 calls
bMatrix pseudoinverse       :      0.000u      0.000s      0.000w      8 calls
New vector                  :      0.000u      0.000s      0.000w      8 calls
HF: Form C                  :      0.017u      0.000s      0.000w     10 calls
HF: Form D                  :      0.000u      0.000s      0.000w     10 calls

-----------------------------------------------------------
JK: (A|mn)                  :      0.000u      0.000s      0.003w      1 calls
JK: (A|Q)^-1/2              :      0.050u      0.000s      0.024w      1 calls
JK: (Q|mn)                  :      0.000u      0.000s      0.000w      1 calls
HF: Form H                  :      0.000u      0.000s      0.011w      1 calls
HF: Form S/X                :      0.000u      0.000s      0.000w      1 calls
HF: Guess                   :      0.183u      0.000s      0.129w      1 calls
| SAD Guess                 :      0.183u      0.000s      0.123w      1 calls
HF: Form G                  :      0.000u      0.000s      0.001w     10 calls
| JK: D                     :      0.000u      0.000s      0.000w     10 calls
| JK: USO2AO                :      0.000u      0.000s      0.000w     10 calls
| JK: JK                    :      0.000u      0.000s      0.001w     10 calls
| | JK: J                   :      0.000u      0.000s      0.000w     10 calls
| | | JK: J1                :      0.000u      0.000s      0.000w     10 calls
| | | JK: J2                :      0.000u      0.000s      0.000w     10 calls
| | JK: K                   :      0.000u      0.000s      0.001w     10 calls
| | | JK: K1                :      0.000u      0.000s      0.001w     10 calls
| | | JK: K2                :      0.000u      0.000s      0.000w     10 calls
| JK: AO2USO                :      0.000u      0.000s      0.000w     10 calls
HF: Form F                  :      0.000u      0.000s      0.000w     10 calls
HF: DIIS                    :      0.000u      0.000s      0.003w     10 calls
| DIISManager::add_entry    :      0.000u      0.000s      0.002w      9 calls
| DIISManager::extrapolate  :      0.000u      0.000s      0.000w      8 calls
| | bMatrix setup           :      0.000u      0.000s      0.000w      8 calls
| | bMatrix pseudoinverse   :      0.000u      0.000s      0.000w      8 calls
| | New vector              :      0.000u      0.000s      0.000w      8 calls
HF: Form C                  :      0.017u      0.000s      0.000w     10 calls
HF: Form D                  :      0.000u      0.000s      0.000w     10 calls

***********************************************************

Host: ed4

Timers On : Tue Dec  4 11:58:37 2018
Timers Off: Tue Dec  4 11:58:38 2018

Wall Time:        1.18 seconds

JK: (A|mn)                  :      0.000u      0.000s      0.002w      1 calls
JK: (A|Q)^-1/2              :      0.050u      0.000s      0.027w      1 calls
JK: (Q|mn)                  :      0.000u      0.000s      0.000w      1 calls
HF: Form H                  :      0.000u      0.000s      0.012w      1 calls
HF: Form S/X                :      0.000u      0.000s      0.000w      1 calls
HF: Guess                   :      0.200u      0.000s      0.128w      1 calls
SAD Guess                   :      0.183u      0.000s      0.122w      1 calls
HF: Form G                  :      0.033u      0.017s      0.031w    501 calls
JK: D                       :      0.000u      0.000s      0.001w    501 calls
JK: USO2AO                  :      0.000u      0.000s      0.001w    501 calls
JK: JK                      :      0.033u      0.017s      0.025w    501 calls
JK: J                       :      0.000u      0.000s      0.004w    501 calls
JK: J1                      :      0.000u      0.000s      0.002w    501 calls
JK: J2                      :      0.000u      0.000s      0.001w    501 calls
JK: K                       :      0.017u      0.017s      0.016w    501 calls
JK: K1                      :      0.017u      0.017s      0.011w    501 calls
JK: K2                      :      0.000u      0.000s      0.004w    501 calls
JK: AO2USO                  :      0.000u      0.000s      0.000w    501 calls
HF: Form F                  :      0.000u      0.000s      0.001w    501 calls
HF: DIIS                    :      0.067u      0.000s      0.056w    501 calls
DIISManager::add_entry      :      0.000u      0.000s      0.008w    500 calls
DIISManager::extrapolate    :      0.067u      0.000s      0.042w    499 calls
bMatrix setup               :      0.033u      0.000s      0.016w    499 calls
bMatrix pseudoinverse       :      0.033u      0.000s      0.014w    499 calls
New vector                  :      0.000u      0.000s      0.010w    499 calls
HF: Form C                  :      0.033u      0.017s      0.011w    501 calls
HF: Form D                  :      0.000u      0.000s      0.001w    501 calls

-----------------------------------------------------------
JK: (A|mn)                  :      0.000u      0.000s      0.002w      1 calls
JK: (A|Q)^-1/2              :      0.050u      0.000s      0.027w      1 calls
JK: (Q|mn)                  :      0.000u      0.000s      0.000w      1 calls
HF: Form H                  :      0.000u      0.000s      0.012w      1 calls
HF: Form S/X                :      0.000u      0.000s      0.000w      1 calls
HF: Guess                   :      0.200u      0.000s      0.128w      1 calls
| SAD Guess                 :      0.183u      0.000s      0.122w      1 calls
HF: Form G                  :      0.033u      0.017s      0.031w    501 calls
| JK: D                     :      0.000u      0.000s      0.001w    501 calls
| JK: USO2AO                :      0.000u      0.000s      0.001w    501 calls
| JK: JK                    :      0.033u      0.017s      0.025w    501 calls
| | JK: J                   :      0.000u      0.000s      0.004w    501 calls
| | | JK: J1                :      0.000u      0.000s      0.002w    501 calls
| | | JK: J2                :      0.000u      0.000s      0.001w    501 calls
| | JK: K                   :      0.017u      0.017s      0.016w    501 calls
| | | JK: K1                :      0.017u      0.017s      0.011w    501 calls
| | | JK: K2                :      0.000u      0.000s      0.004w    501 calls
| JK: AO2USO                :      0.000u      0.000s      0.000w    501 calls
HF: Form F                  :      0.000u      0.000s      0.001w    501 calls
HF: DIIS                    :      0.067u      0.000s      0.056w    501 calls
| DIISManager::add_entry    :      0.000u      0.000s      0.008w    500 calls
| DIISManager::extrapolate  :      0.067u      0.000s      0.042w    499 calls
| | bMatrix setup           :      0.033u      0.000s      0.016w    499 calls
| | bMatrix pseudoinverse   :      0.033u      0.000s      0.014w    499 calls
| | New vector              :      0.000u      0.000s      0.010w    499 calls
HF: Form C                  :      0.033u      0.017s      0.011w    501 calls
HF: Form D                  :      0.000u      0.000s      0.001w    501 calls

***********************************************************

Host: ed4

Timers On : Tue Dec  4 11:58:48 2018
Timers Off: Tue Dec  4 11:58:49 2018

Wall Time:        0.97 seconds

JK: (A|mn)                  :      0.017u      0.000s      0.002w      1 calls
JK: (A|Q)^-1/2              :      0.033u      0.000s      0.027w      1 calls
JK: (Q|mn)                  :      0.000u      0.000s      0.000w      1 calls
HF: Form H                  :      0.000u      0.000s      0.013w      1 calls
HF: Form S/X                :      0.000u      0.000s      0.000w      1 calls
HF: Guess                   :      0.200u      0.000s      0.127w      1 calls
SAD Guess                   :      0.183u      0.000s      0.117w      1 calls
HF: Form G                  :      0.050u      0.050s      0.030w    501 calls
JK: D                       :      0.000u      0.000s      0.001w    501 calls
JK: USO2AO                  :      0.000u      0.000s      0.001w    501 calls
JK: JK                      :      0.050u      0.050s      0.024w    501 calls
JK: J                       :      0.000u      0.000s      0.003w    501 calls
JK: J1                      :      0.000u      0.000s      0.002w    501 calls
JK: J2                      :      0.000u      0.000s      0.001w    501 calls
JK: K                       :      0.033u      0.033s      0.016w    501 calls
JK: K1                      :      0.033u      0.017s      0.011w    501 calls
JK: K2                      :      0.000u      0.017s      0.004w    501 calls
JK: AO2USO                  :      0.000u      0.000s      0.000w    501 calls
HF: Form F                  :      0.000u      0.000s      0.001w    501 calls
HF: DIIS                    :      0.067u      0.000s      0.056w    501 calls
DIISManager::add_entry      :      0.000u      0.000s      0.009w    500 calls
DIISManager::extrapolate    :      0.067u      0.000s      0.042w    499 calls
bMatrix setup               :      0.050u      0.000s      0.016w    499 calls
bMatrix pseudoinverse       :      0.017u      0.000s      0.015w    499 calls
New vector                  :      0.000u      0.000s      0.010w    499 calls
HF: Form C                  :      0.033u      0.000s      0.011w    501 calls
HF: Form D                  :      0.000u      0.000s      0.001w    501 calls

-----------------------------------------------------------
JK: (A|mn)                  :      0.017u      0.000s      0.002w      1 calls
JK: (A|Q)^-1/2              :      0.033u      0.000s      0.027w      1 calls
JK: (Q|mn)                  :      0.000u      0.000s      0.000w      1 calls
HF: Form H                  :      0.000u      0.000s      0.013w      1 calls
HF: Form S/X                :      0.000u      0.000s      0.000w      1 calls
HF: Guess                   :      0.200u      0.000s      0.127w      1 calls
| SAD Guess                 :      0.183u      0.000s      0.117w      1 calls
HF: Form G                  :      0.050u      0.050s      0.030w    501 calls
| JK: D                     :      0.000u      0.000s      0.001w    501 calls
| JK: USO2AO                :      0.000u      0.000s      0.001w    501 calls
| JK: JK                    :      0.050u      0.050s      0.024w    501 calls
| | JK: J                   :      0.000u      0.000s      0.003w    501 calls
| | | JK: J1                :      0.000u      0.000s      0.002w    501 calls
| | | JK: J2                :      0.000u      0.000s      0.001w    501 calls
| | JK: K                   :      0.033u      0.033s      0.016w    501 calls
| | | JK: K1                :      0.033u      0.017s      0.011w    501 calls
| | | JK: K2                :      0.000u      0.017s      0.004w    501 calls
| JK: AO2USO                :      0.000u      0.000s      0.000w    501 calls
HF: Form F                  :      0.000u      0.000s      0.001w    501 calls
HF: DIIS                    :      0.067u      0.000s      0.056w    501 calls
| DIISManager::add_entry    :      0.000u      0.000s      0.009w    500 calls
| DIISManager::extrapolate  :      0.067u      0.000s      0.042w    499 calls
| | bMatrix setup           :      0.050u      0.000s      0.016w    499 calls
| | bMatrix pseudoinverse   :      0.017u      0.000s      0.015w    499 calls
| | New vector              :      0.000u      0.000s      0.010w    499 calls
HF: Form C                  :      0.033u      0.000s      0.011w    501 calls
HF: Form D                  :      0.000u      0.000s      0.001w    501 calls

***********************************************************

Host: ed4

Timers On : Tue Dec  4 11:58:57 2018
Timers Off: Tue Dec  4 11:59:13 2018

Wall Time:       15.78 seconds

JK: (A|mn)                  :      0.000u      0.000s      0.002w      1 calls
JK: (A|Q)^-1/2              :      0.033u      0.000s      0.026w      1 calls
JK: (Q|mn)                  :      0.000u      0.000s      0.000w      1 calls
HF: Form H                  :      0.000u      0.000s      0.013w      1 calls
HF: Form S/X                :      0.000u      0.000s      0.000w      1 calls
HF: Guess                   :      0.200u      0.017s      0.129w      1 calls
SAD Guess                   :      0.183u      0.000s      0.119w      1 calls
HF: Form G                  :      0.050u      0.000s      0.030w    501 calls
JK: D                       :      0.000u      0.000s      0.001w    501 calls
JK: USO2AO                  :      0.000u      0.000s      0.001w    501 calls
JK: JK                      :      0.050u      0.000s      0.024w    501 calls
JK: J                       :      0.000u      0.000s      0.004w    501 calls
JK: J1                      :      0.000u      0.000s      0.002w    501 calls
JK: J2                      :      0.000u      0.000s      0.001w    501 calls
JK: K                       :      0.033u      0.000s      0.016w    501 calls
JK: K1                      :      0.033u      0.000s      0.011w    501 calls
JK: K2                      :      0.000u      0.000s      0.003w    501 calls
JK: AO2USO                  :      0.000u      0.000s      0.000w    501 calls
HF: Form F                  :      0.000u      0.000s      0.001w    501 calls
HF: DIIS                    :      0.050u      0.067s      0.057w    501 calls
DIISManager::add_entry      :      0.017u      0.000s      0.009w    500 calls
DIISManager::extrapolate    :      0.017u      0.067s      0.042w    499 calls
bMatrix setup               :      0.000u      0.017s      0.016w    499 calls
bMatrix pseudoinverse       :      0.000u      0.017s      0.015w    499 calls
New vector                  :      0.017u      0.033s      0.010w    499 calls
HF: Form C                  :      0.000u      0.000s      0.011w    501 calls
HF: Form D                  :      0.000u      0.000s      0.001w    501 calls

-----------------------------------------------------------
JK: (A|mn)                  :      0.000u      0.000s      0.002w      1 calls
JK: (A|Q)^-1/2              :      0.033u      0.000s      0.026w      1 calls
JK: (Q|mn)                  :      0.000u      0.000s      0.000w      1 calls
HF: Form H                  :      0.000u      0.000s      0.013w      1 calls
HF: Form S/X                :      0.000u      0.000s      0.000w      1 calls
HF: Guess                   :      0.200u      0.017s      0.129w      1 calls
| SAD Guess                 :      0.183u      0.000s      0.119w      1 calls
HF: Form G                  :      0.050u      0.000s      0.030w    501 calls
| JK: D                     :      0.000u      0.000s      0.001w    501 calls
| JK: USO2AO                :      0.000u      0.000s      0.001w    501 calls
| JK: JK                    :      0.050u      0.000s      0.024w    501 calls
| | JK: J                   :      0.000u      0.000s      0.004w    501 calls
| | | JK: J1                :      0.000u      0.000s      0.002w    501 calls
| | | JK: J2                :      0.000u      0.000s      0.001w    501 calls
| | JK: K                   :      0.033u      0.000s      0.016w    501 calls
| | | JK: K1                :      0.033u      0.000s      0.011w    501 calls
| | | JK: K2                :      0.000u      0.000s      0.003w    501 calls
| JK: AO2USO                :      0.000u      0.000s      0.000w    501 calls
HF: Form F                  :      0.000u      0.000s      0.001w    501 calls
HF: DIIS                    :      0.050u      0.067s      0.057w    501 calls
| DIISManager::add_entry    :      0.017u      0.000s      0.009w    500 calls
| DIISManager::extrapolate  :      0.017u      0.067s      0.042w    499 calls
| | bMatrix setup           :      0.000u      0.017s      0.016w    499 calls
| | bMatrix pseudoinverse   :      0.000u      0.017s      0.015w    499 calls
| | New vector              :      0.017u      0.033s      0.010w    499 calls
HF: Form C                  :      0.000u      0.000s      0.011w    501 calls
HF: Form D                  :      0.000u      0.000s      0.001w    501 calls

***********************************************************
