
    -----------------------------------------------------------------------
          Psi4: An Open-Source Ab Initio Electronic Structure Package
                               Psi4 1.2a1.dev875 

                         Git: Rev {master} 4c3ce1a dirty


    R. M. Parrish, L. A. Burns, D. G. A. Smith, A. C. Simmonett,
    A. E. DePrince III, E. G. Hohenstein, U. Bozkaya, A. Yu. Sokolov,
    R. Di Remigio, R. M. Richard, J. F. Gonthier, A. M. James,
    H. R. McAlexander, A. Kumar, M. Saitow, X. Wang, B. P. Pritchard,
    P. Verma, H. F. Schaefer III, K. Patkowski, R. A. King, E. F. Valeev,
    F. A. Evangelista, J. M. Turney, T. D. Crawford, and C. D. Sherrill,
    J. Chem. Theory Comput. 13(7) pp 3185--3197 (2017).
    (doi: 10.1021/acs.jctc.7b00174)

    -----------------------------------------------------------------------


    Psi4 started on: Thursday, 22 February 2018 06:42PM

    Process ID:   5862
    PSIDATADIR: /edfs/users/namvu/software/psi4/install/intel-release/share/psi4
    Memory:     500.0 MiB
    Threads:    6
    
  ==> Input File <==

--------------------------------------------------------------------------
# PYTHONPATH must include directory above plugin directory.
#     Define either externally or here, then import plugin.
sys.path.insert(0, "/edfs/users/namvu/fresh_plugin")
import v2rdm_casscf
sys.path.insert(0, './..')
import erpa 

memory 3000 mb
molecule mol {
0 1
c
o 1  1.1282
}

set {
  basis sto-3g
  scf_type df
  d_convergence 1e-8
  reference rohf
}

set v2rdm_casscf{


  positivity dqg

  tpdm_write_full true
  constrain_spin true

  r_convergence  1e-5
  e_convergence  1e-4
  cg_convergence 1e-6
  maxiter 1000000

  optimize_orbitals true
  orbopt_active_active_rotations true
  semicanonicalize_orbitals false

  mu_update_frequency 500

  restricted_docc  [ 2, 0, 0, 0 ]
  active           [ 4, 0, 2, 2 ]
}

set erpa {

  pruning_threshold 1e-7
  number_coefficients 20
  coefficient_threshold 0.005

 }

en,wfn = energy('v2rdm-casscf',return_wfn=True)

energy('erpa',ref_wfn=wfn)

--------------------------------------------------------------------------

  Memory set to   2.794 GiB by Python driver.

*** tstart() called on ed4
*** at Thu Feb 22 18:42:24 2018

   => Loading Basis Set <=

    Name: STO-3G
    Role: ORBITAL
    Keyword: BASIS
    atoms 1 entry C          line    61 file /edfs/users/namvu/software/psi4/install/intel-release/share/psi4/basis/sto-3g.gbs 
    atoms 2 entry O          line    81 file /edfs/users/namvu/software/psi4/install/intel-release/share/psi4/basis/sto-3g.gbs 


         ---------------------------------------------------------
                                   SCF
            by Justin Turney, Rob Parrish, Andy Simmonett
                             and Daniel Smith
                             ROHF Reference
                        6 Threads,   2861 MiB Core
         ---------------------------------------------------------

  ==> Geometry <==

    Molecular point group: c2v
    Full point group: C_inf_v

    Geometry (in Angstrom), charge = 0, multiplicity = 1:

       Center              X                  Y                   Z               Mass       
    ------------   -----------------  -----------------  -----------------  -----------------
           C          0.000000000000     0.000000000000    -0.644597882116    12.000000000000
           O          0.000000000000     0.000000000000     0.483602117884    15.994914619560

  Running in c2v symmetry.

  Rotational constants: A = ************  B =      1.93170  C =      1.93170 [cm^-1]
  Rotational constants: A = ************  B =  57910.98880  C =  57910.98880 [MHz]
  Nuclear repulsion =   22.514187211770960

  Charge       = 0
  Multiplicity = 1
  Electrons    = 14
  Nalpha       = 7
  Nbeta        = 7

  ==> Algorithm <==

  SCF Algorithm Type is DF.
  DIIS enabled.
  MOM disabled.
  Fractional occupation disabled.
  Guess Type is GWH.
  Energy threshold   = 1.00e-08
  Density threshold  = 1.00e-08
  Integral threshold = 0.00e+00

  ==> Primary Basis <==

  Basis Set: STO-3G
    Blend: STO-3G
    Number of shells: 6
    Number of basis function: 10
    Number of Cartesian functions: 10
    Spherical Harmonics?: true
    Max angular momentum: 1

   => Loading Basis Set <=

    Name: (STO-3G AUX)
    Role: JKFIT
    Keyword: DF_BASIS_SCF
    atoms 1 entry C          line   203 file /edfs/users/namvu/software/psi4/install/intel-release/share/psi4/basis/def2-svp-jkfit.gbs 
    atoms 2 entry O          line   323 file /edfs/users/namvu/software/psi4/install/intel-release/share/psi4/basis/def2-svp-jkfit.gbs 

  ==> Pre-Iterations <==

   -------------------------------------------------------
    Irrep   Nso     Nmo     Nalpha   Nbeta   Ndocc  Nsocc
   -------------------------------------------------------
     A1         6       6       0       0       0       0
     A2         0       0       0       0       0       0
     B1         2       2       0       0       0       0
     B2         2       2       0       0       0       0
   -------------------------------------------------------
    Total      10      10       7       7       7       0
   -------------------------------------------------------

  ==> Integral Setup <==

  ==> DFJK: Density-Fitted J/K Matrices <==

    J tasked:                  Yes
    K tasked:                  Yes
    wK tasked:                  No
    OpenMP threads:              6
    Integrals threads:           6
    Memory (MB):              2145
    Algorithm:                Core
    Integral Cache:           SAVE
    Schwarz Cutoff:          1E-12
    Fitting Condition:       1E-12

   => Auxiliary Basis Set <=

  Basis Set: (STO-3G AUX)
    Blend: DEF2-SVP-JKFIT
    Number of shells: 50
    Number of basis function: 152
    Number of Cartesian functions: 182
    Spherical Harmonics?: true
    Max angular momentum: 4

  Minimum eigenvalue in the overlap matrix is 2.0333835807E-01.
  Using Symmetric Orthogonalization.

  SCF Guess: Generalized Wolfsberg-Helmholtz.

  ==> Iterations <==

                           Total Energy        Delta E     RMS |[F,P]|

   @DF-ROHF iter   1:  -111.00183093974168   -1.11002e+02   1.12530e-01 
   @DF-ROHF iter   2:  -111.20735577077836   -2.05525e-01   3.32020e-02 DIIS
   @DF-ROHF iter   3:  -111.22022298244765   -1.28672e-02   1.68779e-02 DIIS
   @DF-ROHF iter   4:  -111.22469478970417   -4.47181e-03   2.00501e-03 DIIS
   @DF-ROHF iter   5:  -111.22475146470283   -5.66750e-05   2.49016e-04 DIIS
   @DF-ROHF iter   6:  -111.22475320102556   -1.73632e-06   4.87773e-05 DIIS
   @DF-ROHF iter   7:  -111.22475324277947   -4.17539e-08   1.76874e-06 DIIS
   @DF-ROHF iter   8:  -111.22475324284763   -6.81553e-11   3.22604e-08 DIIS
   @DF-ROHF iter   9:  -111.22475324284760    2.84217e-14   1.20474e-09 DIIS

  ==> Post-Iterations <==

    Orbital Energies (a.u.)
    -----------------------

    Doubly Occupied:                                                      

       1A1   -20.424424     2A1   -11.093526     3A1    -1.459956  
       4A1    -0.699441     1B2    -0.551062     1B1    -0.551062  
       5A1    -0.446443  

    Singly Occupied:                                                      

    

    Virtual:                                                              

       2B1     0.313441     2B2     0.313441     6A1     1.040117  

    Final Occupation by Irrep:
             A1    A2    B1    B2 
    DOCC [     5,    0,    1,    1 ]
    SOCC [     0,    0,    0,    0 ]

  Energy converged.

  @DF-ROHF Final Energy:  -111.22475324284760

   => Energetics <=

    Nuclear Repulsion Energy =             22.5141872117709596
    One-Electron Energy =                -197.0260526251322517
    Two-Electron Energy =                  63.2871121705137014
    Total Energy =                       -111.2247532428476120



Properties will be evaluated at   0.000000,   0.000000,   0.000000 Bohr

Properties computed using the SCF density matrix

  Nuclear Dipole Moment: (a.u.)
     X:     0.0000      Y:     0.0000      Z:     0.0023

  Electronic Dipole Moment: (a.u.)
     X:     0.0000      Y:     0.0000      Z:     0.0639

  Dipole Moment: (a.u.)
     X:     0.0000      Y:     0.0000      Z:     0.0662     Total:     0.0662

  Dipole Moment: (Debye)
     X:     0.0000      Y:     0.0000      Z:     0.1683     Total:     0.1683


*** tstop() called on ed4 at Thu Feb 22 18:42:24 2018
Module time:
	user time   =       1.83 seconds =       0.03 minutes
	system time =       0.10 seconds =       0.00 minutes
	total time  =          0 seconds =       0.00 minutes
Total time:
	user time   =       1.83 seconds =       0.03 minutes
	system time =       0.10 seconds =       0.00 minutes
	total time  =          0 seconds =       0.00 minutes

Reading options from the V2RDM_CASSCF block
Calling plugin v2rdm_casscf.so.



*** tstart() called on ed4
*** at Thu Feb 22 18:42:24 2018



        ****************************************************
        *                                                  *
        *    v2RDM-CASSCF (PRIVATE)                        *
        *                                                  *
        *    A variational 2-RDM-driven approach to the    *
        *    active space self-consistent field method     *
        *                                                  *
        ****************************************************


        The following papers should be cited when using v2RDM-CASSCF:

        J. Fosso-Tande, D. R. Nascimento, and A. E. DePrince III,
        Mol. Phys. 114, 423-430 (2015).

            URL: http://dx.doi.org/10.1080/00268976.2015.1078008

        J. Fosso-Tande, T.-S. Nguyen, G. Gidofalvi, and
        A. E. DePrince III, J. Chem. Theory Comput. accepted (2016).

            URL: http://dx.doi.org/10.1021/acs.jctc.6b00190



  ==> Convergence parameters <==

        r_convergence:                      1.000e-05
        e_convergence:                      1.000e-04
        cg_convergence:                     1.000e-06
        maxiter:                              1000000
        cg_maxiter:                             10000

  ==> Active space details <==

        Number of frozen core orbitals:             0
        Number of restricted occupied orbitals:     2
        Number of active occupied orbitals:         5
        Number of active virtual orbitals:          3
        Number of restricted virtual orbitals:      0
        Number of frozen virtual orbitals:          0

        Irrep:             A1,  A2,  B1,  B2 
 
        frozen_docc     [   0,   0,   0,   0 ]
        restricted_docc [   2,   0,   0,   0 ]
        active          [   4,   0,   2,   2 ]
        restricted_uocc [   0,   0,   0,   0 ]
        frozen_uocc     [   0,   0,   0,   0 ]

  ==> Orbital optimization parameters <==

        1-step algorithm:                    true
        g_convergence:                  1.000e-06
        e_convergence:                  1.000e-08
        maximum iterations:                    20
        frequency:                            500
        active-active rotations:             true
        exact diagonal Hessian:             false
        number of DIIS vectors:                 0
        print iteration info:               false

  ==> Memory requirements <==

        D2:                          0.01 mb
        Q2:                          0.01 mb
        G2:                          0.05 mb

        Total number of variables:          11296
        Total number of constraints:        10428
        Total memory requirements:        0.80 mb

    ==> Transform three-electron integrals <==


        Time for integral transformation:     0.04 s

    Molecular point group: c2v
    Full point group: C_inf_v

    Geometry (in Angstrom), charge = 0, multiplicity = 1:

       Center              X                  Y                   Z               Mass       
    ------------   -----------------  -----------------  -----------------  -----------------
           C          0.000000000000     0.000000000000    -0.644597882116    12.000000000000
           O          0.000000000000     0.000000000000     0.483602117884    15.994914619560

  -AO BASIS SET INFORMATION:
    Name                   = STO-3G
    Blend                  = STO-3G
    Total number of shells = 6
    Number of primitives   = 18
    Number of AO           = 10
    Number of SO           = 10
    Maximum AM             = 1
    Spherical Harmonics    = TRUE

  -Contraction Scheme:
    Atom   Type   All Primitives // Shells:
   ------ ------ --------------------------
       1     C     6s 3p // 2s 1p 
       2     O     6s 3p // 2s 1p 

  ==> AO Basis Functions <==

    [ STO-3G ]
    spherical
    ****
    C   1
    S   3 1.00
                        71.61683700           0.15432897
                        13.04509600           0.53532814
                         3.53051220           0.44463454
    S   3 1.00
                         2.94124940          -0.09996723
                         0.68348310           0.39951283
                         0.22228990           0.70011547
    P   3 1.00
                         2.94124940           0.15591627
                         0.68348310           0.60768372
                         0.22228990           0.39195739
    ****
    O   2
    S   3 1.00
                       130.70932000           0.15432897
                        23.80886100           0.53532814
                         6.44360830           0.44463454
    S   3 1.00
                         5.03315130          -0.09996723
                         1.16959610           0.39951283
                         0.38038900           0.70011547
    P   3 1.00
                         5.03315130           0.15591627
                         1.16959610           0.60768372
                         0.38038900           0.39195739
    ****


    reference energy:        -111.224753242848
    frozen core energy:      -101.696893751341
    initial 2-RDM energy:     -72.251631854279

      oiter iiter        E(p)        E(d)      E gap)      mu     eps(p)     eps(d)
          0    53 -123.950140  522.915970  646.866110   1.000  202.77553  159.51854
          1    32 -100.023768 -755.410225  655.386457   1.000   30.05186  106.39232
          2    31 -101.498088 -372.518976  271.020888   1.000   25.56186   26.63687
          3    30 -106.903586 -287.772742  180.869157   1.000   20.39713    8.40026
          4    30 -113.733590 -250.212619  136.479030   1.000   16.73581    5.64392
          5    30 -114.509510 -215.462144  100.952634   1.000   12.93143    4.30927
          6    31 -112.863679 -195.539980   82.676301   1.000    9.22521    2.70011
          7    30 -110.769733 -185.995206   75.225473   1.000    6.14010    1.93240
          8    30 -109.876640 -177.554971   67.678330   1.000    5.05840    1.36910
          9    30 -109.395125 -167.511296   58.116171   1.000    4.39514    1.15358
         10    30 -108.994655 -158.461606   49.466950   1.000    3.92440    0.96798
         11    30 -108.857914 -150.475989   41.618075   1.000    3.70468    0.85984
         12    30 -108.816473 -143.451554   34.635081   1.000    3.54011    0.81564
         13    30 -108.660231 -137.365256   28.705025   1.000    3.04786    0.82239
         14    30 -108.318702 -132.292647   23.973945   1.000    2.29777    0.85605
         15    30 -108.274039 -128.257978   19.983939   1.000    2.10788    0.69866
         16    30 -108.324682 -124.571272   16.246590   1.000    1.97852    0.59407
         17    30 -108.387598 -121.203480   12.815882   1.000    1.84128    0.61497
         18    30 -108.451361 -118.414882    9.963521   1.000    1.71219    0.56713
         19    30 -108.527056 -115.952243    7.425187   1.000    1.59374    0.53304
         20    30 -108.624288 -113.775017    5.150729   1.000    1.45975    0.54939
         21    30 -108.734684 -112.080760    3.346076   1.000    1.32327    0.54941
         22    30 -108.841393 -110.746090    1.904697   1.000    1.18487    0.52900
         23    30 -108.960415 -109.702805    0.742390   1.000    0.99521    0.58937
         24    30 -109.121550 -109.153976    0.032426   1.000    0.82496    0.55111
         25    29 -109.288320 -108.823601    0.464719   1.000    0.63731    0.52325
         26    30 -109.445757 -108.656210    0.789547   1.000    0.43709    0.50713
         27    25 -109.587794 -108.724152    0.863641   1.000    0.30563    0.43107
         28    25 -109.709744 -108.831032    0.878712   1.000    0.25263    0.36864
         29    29 -109.802911 -108.895184    0.907728   1.000    0.22457    0.34459
         30    29 -109.875511 -108.981230    0.894280   1.000    0.21479    0.32657
         31    30 -109.943359 -109.071522    0.871837   1.000    0.19945    0.31479
         32    26 -110.009228 -109.146505    0.862723   1.000    0.17467    0.30690
         33    26 -110.076112 -109.191893    0.884219   1.000    0.14803    0.29915
         34    26 -110.143994 -109.227522    0.916472   1.000    0.12723    0.28996
         35    25 -110.213941 -109.259100    0.954841   1.000    0.11544    0.27994
         36    26 -110.281991 -109.297677    0.984314   1.000    0.11091    0.27000
         37    27 -110.346571 -109.348008    0.998563   1.000    0.10870    0.26079
         38    26 -110.408575 -109.405245    1.003330   1.000    0.10683    0.25249
         39    26 -110.462402 -109.466617    0.995785   1.000    0.10455    0.24448
         40    26 -110.512521 -109.524645    0.987876   1.000    0.10167    0.23681
         41    26 -110.556126 -109.576983    0.979143   1.000    0.09777    0.22983
         42    26 -110.597919 -109.622245    0.975674   1.000    0.09334    0.22326
         43    26 -110.636952 -109.668292    0.968660   1.000    0.09073    0.21621
         44    26 -110.674454 -109.723042    0.951412   1.000    0.08972    0.20824
         45    26 -110.708553 -109.783787    0.924766   1.000    0.08975    0.19975
         46    26 -110.738401 -109.855410    0.882991   1.000    0.08894    0.19113
         47    26 -110.766068 -109.933648    0.832419   1.000    0.08840    0.18246
         48    26 -110.791615 -110.018973    0.772643   1.000    0.08711    0.17368
         49    26 -110.813111 -110.094968    0.718143   1.000    0.08410    0.16630
         50    26 -110.824763 -110.155546    0.669217   1.000    0.08110    0.15953
         51    26 -110.836047 -110.222772    0.613276   1.000    0.07937    0.15293
         52    26 -110.848944 -110.263961    0.584982   1.000    0.07812    0.14626
         53    26 -110.862509 -110.286060    0.576449   1.000    0.07721    0.13914
         54    26 -110.875618 -110.302628    0.572990   1.000    0.07578    0.13242
         55    26 -110.886503 -110.326359    0.560143   1.000    0.07386    0.12640
         56    27 -110.896924 -110.369083    0.527840   1.000    0.07258    0.12092
         57    27 -110.905520 -110.427377    0.478143   1.000    0.07292    0.11495
         58    27 -110.914850 -110.500688    0.414162   1.000    0.06908    0.10973
         59    24 -110.924583 -110.563600    0.360982   1.000    0.06082    0.10568
         60    26 -110.933350 -110.609331    0.324020   1.000    0.05163    0.10219
         61    26 -110.941627 -110.636131    0.305496   1.000    0.04428    0.09905
         62    26 -110.949571 -110.647147    0.302424   1.000    0.04009    0.09623
         63    26 -110.957092 -110.647695    0.309397   1.000    0.03823    0.09374
         64    26 -110.964550 -110.641885    0.322665   1.000    0.03726    0.09164
         65    26 -110.970618 -110.633933    0.336685   1.000    0.03494    0.09004
         66    26 -110.976027 -110.637858    0.338169   1.000    0.03164    0.08865
         67    28 -110.982020 -110.640262    0.341758   1.000    0.02999    0.08738
         68    26 -110.988054 -110.642870    0.345184   1.000    0.02894    0.08621
         69    26 -110.993796 -110.645727    0.348069   1.000    0.02807    0.08511
         70    26 -110.999461 -110.649562    0.349900   1.000    0.02715    0.08416
         71    26 -111.004734 -110.654495    0.350240   1.000    0.02619    0.08336
         72    26 -111.009780 -110.660404    0.349376   1.000    0.02541    0.08262
         73    26 -111.011868 -110.665869    0.345999   1.000    0.02670    0.08184
         74    26 -111.014453 -110.674695    0.339758   1.000    0.02865    0.08096
         75    26 -111.019122 -110.684087    0.335035   1.000    0.02958    0.08003
         76    26 -111.024790 -110.692127    0.332663   1.000    0.02855    0.07923
         77    26 -111.031551 -110.698881    0.332670   1.000    0.02610    0.07860
         78    26 -111.038363 -110.704188    0.334175   1.000    0.02302    0.07810
         79    26 -111.045291 -110.708398    0.336893   1.000    0.02031    0.07766
         80    26 -111.052497 -110.711463    0.341034   1.000    0.01878    0.07724
         81    26 -111.059157 -110.713560    0.345596   1.000    0.01847    0.07679
         82    26 -111.065555 -110.715245    0.350310   1.000    0.01908    0.07627
         83    26 -111.071394 -110.717563    0.353831   1.000    0.01999    0.07569
         84    26 -111.076584 -110.719833    0.356751   1.000    0.02071    0.07510
         85    26 -111.081323 -110.722594    0.358728   1.000    0.02108    0.07450
         86    26 -111.085836 -110.725214    0.360622   1.000    0.02106    0.07394
         87    26 -111.090243 -110.727666    0.362577   1.000    0.02086    0.07335
         88    26 -111.094580 -110.730918    0.363663   1.000    0.02091    0.07267
         89    26 -111.097762 -110.735259    0.362504   1.000    0.02029    0.07195
         90    27 -111.102270 -110.741852    0.360418   1.000    0.02093    0.07123
         91    26 -111.106669 -110.748137    0.358532   1.000    0.02078    0.07062
         92    26 -111.111212 -110.754592    0.356620   1.000    0.02067    0.07011
         93    25 -111.116097 -110.760766    0.355331   1.000    0.02044    0.06965
         94    26 -111.120923 -110.767305    0.353617   1.000    0.02020    0.06919
         95    26 -111.125888 -110.773848    0.352040   1.000    0.01984    0.06878
         96    26 -111.130559 -110.779844    0.350716   1.000    0.01927    0.06844
         97    26 -111.135295 -110.785291    0.350005   1.000    0.01845    0.06819
         98    26 -111.139724 -110.790222    0.349502   1.000    0.01748    0.06799
         99    26 -111.144053 -110.794522    0.349531   1.000    0.01654    0.06778
        100    26 -111.148082 -110.797801    0.350282   1.000    0.01587    0.06757
        101    26 -111.152249 -110.802783    0.349466   1.000    0.01585    0.06730
        102    26 -111.156248 -110.804170    0.352078   1.000    0.01621    0.06699
        103    26 -111.159305 -110.804522    0.354783   1.000    0.01453    0.06669
        104    26 -111.162338 -110.805021    0.357317   1.000    0.01333    0.06639
        105    26 -111.166055 -110.805978    0.360077   1.000    0.01315    0.06608
        106    27 -111.169792 -110.806355    0.363437   1.000    0.01308    0.06577
        107    26 -111.173744 -110.806393    0.367351   1.000    0.01309    0.06547
        108    27 -111.177715 -110.806168    0.371546   1.000    0.01314    0.06517
        109    25 -111.181910 -110.806007    0.375903   1.000    0.01325    0.06486
        110    26 -111.186094 -110.806143    0.379951   1.000    0.01330    0.06456
        111    26 -111.190321 -110.807225    0.383096   1.000    0.01355    0.06420
        112    26 -111.194557 -110.808623    0.385933   1.000    0.01400    0.06377
        113    26 -111.198938 -110.811180    0.387758   1.000    0.01474    0.06327
        114    26 -111.203533 -110.814936    0.388597   1.000    0.01537    0.06276
        115    26 -111.208205 -110.819150    0.389055   1.000    0.01586    0.06227
        116    26 -111.212457 -110.824049    0.388408   1.000    0.01625    0.06175
        117    26 -111.216306 -110.829936    0.386370   1.000    0.01685    0.06121
        118    26 -111.220240 -110.837818    0.382422   1.000    0.01741    0.06059
        119    26 -111.224478 -110.845530    0.378948   1.000    0.01801    0.05989
        120    26 -111.229019 -110.852805    0.376214   1.000    0.01842    0.05919
        121    26 -111.233377 -110.859463    0.373914   1.000    0.01866    0.05856
        122    26 -111.237513 -110.865782    0.371731   1.000    0.01885    0.05795
        123    26 -111.241410 -110.872271    0.369139   1.000    0.01904    0.05735
        124    26 -111.244608 -110.878987    0.365620   1.000    0.01918    0.05674
        125    26 -111.248054 -110.885539    0.362515   1.000    0.01931    0.05613
        126    26 -111.251028 -110.892612    0.358416   1.000    0.01937    0.05554
        127    26 -111.253921 -110.899660    0.354261   1.000    0.01933    0.05498
        128    26 -111.256626 -110.906360    0.350266   1.000    0.01919    0.05444
        129    26 -111.259338 -110.912609    0.346729   1.000    0.01901    0.05393
        130    26 -111.262031 -110.918422    0.343609   1.000    0.01879    0.05342
        131    26 -111.264515 -110.923861    0.340653   1.000    0.01852    0.05293
        132    26 -111.267035 -110.928996    0.338039   1.000    0.01821    0.05245
        133    26 -111.269368 -110.933910    0.335459   1.000    0.01785    0.05199
        134    26 -111.271712 -110.938646    0.333066   1.000    0.01745    0.05156
        135    26 -111.273940 -110.943338    0.330602   1.000    0.01703    0.05114
        136    26 -111.276157 -110.948103    0.328054   1.000    0.01664    0.05074
        137    26 -111.277002 -110.952914    0.324088   1.000    0.01514    0.05038
        138    26 -111.278981 -110.959887    0.319094   1.000    0.01483    0.04998
        139    26 -111.280641 -110.964695    0.315946   1.000    0.01438    0.04962
        140    27 -111.282509 -110.969449    0.313060   1.000    0.01412    0.04926
        141    26 -111.284186 -110.973358    0.310829   1.000    0.01381    0.04891
        142    27 -111.286023 -110.976973    0.309049   1.000    0.01340    0.04857
        143    26 -111.286875 -110.980301    0.306575   1.000    0.01186    0.04827
        144    26 -111.288568 -110.984539    0.304030   1.000    0.01158    0.04792
        145    26 -111.290239 -110.987494    0.302745   1.000    0.01134    0.04760
        146    24 -111.291992 -110.990137    0.301854   1.000    0.01115    0.04729
        147    24 -111.293732 -110.992583    0.301150   1.000    0.01099    0.04698
        148    24 -111.295463 -110.994851    0.300612   1.000    0.01084    0.04668
        149    24 -111.297229 -110.996989    0.300240   1.000    0.01069    0.04640
        150    26 -111.298921 -110.999321    0.299600   1.000    0.01057    0.04612
        151    26 -111.300755 -111.001330    0.299425   1.000    0.01045    0.04585
        152    24 -111.302558 -111.003229    0.299329   1.000    0.01035    0.04558
        153    24 -111.304364 -111.005072    0.299292   1.000    0.01025    0.04533
        154    26 -111.306173 -111.006888    0.299285   1.000    0.01017    0.04507
        155    26 -111.307989 -111.008679    0.299309   1.000    0.01011    0.04482
        156    26 -111.309818 -111.010499    0.299320   1.000    0.01005    0.04458
        157    26 -111.311653 -111.012363    0.299290   1.000    0.01001    0.04434
        158    26 -111.313508 -111.014302    0.299206   1.000    0.00987    0.04412
        159    26 -111.315296 -111.017119    0.298177   1.000    0.00969    0.04389
        160    26 -111.317042 -111.020265    0.296777   1.000    0.00951    0.04368
        161    25 -111.318808 -111.023479    0.295330   1.000    0.00940    0.04345
        162    26 -111.320477 -111.026283    0.294194   1.000    0.00931    0.04324
        163    26 -111.322187 -111.028921    0.293265   1.000    0.00924    0.04302
        164    26 -111.323813 -111.031391    0.292421   1.000    0.00918    0.04281
        165    26 -111.325458 -111.033778    0.291680   1.000    0.00913    0.04260
        166    26 -111.327110 -111.036093    0.291017   1.000    0.00908    0.04239
        167    26 -111.328755 -111.038336    0.290419   1.000    0.00904    0.04218
        168    26 -111.330317 -111.040507    0.289810   1.000    0.00901    0.04197
        169    26 -111.332026 -111.042608    0.289417   1.000    0.00873    0.04179
        170    26 -111.333546 -111.045481    0.288065   1.000    0.00874    0.04153
        171    20 -111.335125 -111.048076    0.287049   1.000    0.00879    0.04130
        172    21 -111.336621 -111.050248    0.286373   1.000    0.00885    0.04107
        173    21 -111.338103 -111.052279    0.285824   1.000    0.00894    0.04083
        174    21 -111.339584 -111.054312    0.285272   1.000    0.00904    0.04059
        175    21 -111.341077 -111.056274    0.284803   1.000    0.00916    0.04034
        176    21 -111.342554 -111.058243    0.284311   1.000    0.00930    0.04008
        177    21 -111.344057 -111.060232    0.283824   1.000    0.00945    0.03981
        178    21 -111.345552 -111.062275    0.283276   1.000    0.00961    0.03954
        179    21 -111.347045 -111.064402    0.282643   1.000    0.00978    0.03927
        180    21 -111.348537 -111.066614    0.281924   1.000    0.00996    0.03898
        181    21 -111.350019 -111.068887    0.281132   1.000    0.01015    0.03869
        182    21 -111.351483 -111.071233    0.280251   1.000    0.01035    0.03838
        183    24 -111.353032 -111.073436    0.279596   1.000    0.01056    0.03807
        184    24 -111.354535 -111.076207    0.278328   1.000    0.01079    0.03774
        185    24 -111.355961 -111.079333    0.276629   1.000    0.01105    0.03738
        186    24 -111.357429 -111.082685    0.274744   1.000    0.01132    0.03702
        187    26 -111.358963 -111.086164    0.272799   1.000    0.01159    0.03663
        188    24 -111.360222 -111.089886    0.270335   1.000    0.01187    0.03623
        189    24 -111.361556 -111.093677    0.267880   1.000    0.01214    0.03581
        190    25 -111.362873 -111.097559    0.265314   1.000    0.01240    0.03537
        191    24 -111.363982 -111.101509    0.262474   1.000    0.01270    0.03490
        192    25 -111.365117 -111.106582    0.258535   1.000    0.01299    0.03442
        193    25 -111.366273 -111.111521    0.254752   1.000    0.01324    0.03393
        194    24 -111.367477 -111.116035    0.251442   1.000    0.01346    0.03342
        195    24 -111.368578 -111.120334    0.248244   1.000    0.01369    0.03290
        196    25 -111.369735 -111.124654    0.245080   1.000    0.01389    0.03237
        197    24 -111.370705 -111.129114    0.241591   1.000    0.01409    0.03184
        198    24 -111.371893 -111.133926    0.237968   1.000    0.01426    0.03129
        199    24 -111.372984 -111.139058    0.233926   1.000    0.01442    0.03073
        200    24 -111.374021 -111.144449    0.229572   1.000    0.01455    0.03016
        201    24 -111.375075 -111.149989    0.225086   1.000    0.01465    0.02959
        202    24 -111.376114 -111.155613    0.220502   1.000    0.01470    0.02902
        203    24 -111.377114 -111.161293    0.215822   1.000    0.01471    0.02846
        204    24 -111.378112 -111.166998    0.211114   1.000    0.01469    0.02789
        205    24 -111.378999 -111.172728    0.206272   1.000    0.01462    0.02733
        206    24 -111.379837 -111.178461    0.201376   1.000    0.01453    0.02677
        207    21 -111.380416 -111.184436    0.195979   1.000    0.01440    0.02620
        208    21 -111.381198 -111.190492    0.190706   1.000    0.01425    0.02564
        209    21 -111.381875 -111.196721    0.185153   1.000    0.01408    0.02507
        210    21 -111.382550 -111.202605    0.179945   1.000    0.01390    0.02450
        211    21 -111.383116 -111.208524    0.174592   1.000    0.01370    0.02393
        212    21 -111.383626 -111.214418    0.169209   1.000    0.01349    0.02335
        213    21 -111.384075 -111.220313    0.163762   1.000    0.01328    0.02276
        214    21 -111.384465 -111.226063    0.158401   1.000    0.01306    0.02217
        215    21 -111.384801 -111.231721    0.153079   1.000    0.01284    0.02157
        216    21 -111.385081 -111.237278    0.147804   1.000    0.01263    0.02097
        217    21 -111.385334 -111.242698    0.142635   1.000    0.01241    0.02037
        218    21 -111.385543 -111.247965    0.137577   1.000    0.01220    0.01977
        219    21 -111.385706 -111.253111    0.132595   1.000    0.01199    0.01917
        220    21 -111.385858 -111.258103    0.127755   1.000    0.01179    0.01857
        221    21 -111.385973 -111.263009    0.122964   1.000    0.01159    0.01797
        222    21 -111.386050 -111.267718    0.118332   1.000    0.01140    0.01737
        223    21 -111.386063 -111.272494    0.113569   1.000    0.01120    0.01678
        224    21 -111.386083 -111.277418    0.108665   1.000    0.01101    0.01620
        225    21 -111.386069 -111.282125    0.103944   1.000    0.01082    0.01563
        226    21 -111.386017 -111.286739    0.099278   1.000    0.01064    0.01507
        227    21 -111.385840 -111.291190    0.094649   1.000    0.01046    0.01452
        228    21 -111.385625 -111.296739    0.088886   1.000    0.01025    0.01397
        229    21 -111.385501 -111.301818    0.083683   1.000    0.01006    0.01343
        230    21 -111.385343 -111.306429    0.078914   1.000    0.00985    0.01290
        231    21 -111.385159 -111.310563    0.074596   1.000    0.00965    0.01238
        232    21 -111.384946 -111.314338    0.070608   1.000    0.00945    0.01187
        233    21 -111.384708 -111.317791    0.066917   1.000    0.00926    0.01137
        234    21 -111.384469 -111.320999    0.063470   1.000    0.00907    0.01089
        235    21 -111.384232 -111.323988    0.060244   1.000    0.00888    0.01042
        236    21 -111.384002 -111.326792    0.057209   1.000    0.00870    0.00997
        237    21 -111.383774 -111.329432    0.054342   1.000    0.00852    0.00953
        238    21 -111.383566 -111.332009    0.051557   1.000    0.00834    0.00911
        239    21 -111.383385 -111.334403    0.048982   1.000    0.00817    0.00871
        240    21 -111.383229 -111.336714    0.046514   1.000    0.00801    0.00832
        241    21 -111.383086 -111.339002    0.044084   1.000    0.00783    0.00797
        242    21 -111.382971 -111.341429    0.041542   1.000    0.00766    0.00762
        243    21 -111.382871 -111.343742    0.039130   1.000    0.00751    0.00729
        244    21 -111.382738 -111.346172    0.036567   1.000    0.00735    0.00697
        245    21 -111.382634 -111.348493    0.034141   1.000    0.00719    0.00667
        246    21 -111.382547 -111.350763    0.031784   1.000    0.00705    0.00638
        247    21 -111.382446 -111.353037    0.029409   1.000    0.00691    0.00611
        248    21 -111.382329 -111.355263    0.027065   1.000    0.00678    0.00585
        249    21 -111.382205 -111.357436    0.024769   1.000    0.00666    0.00559
        250    21 -111.382070 -111.359459    0.022611   1.000    0.00654    0.00535
        251    21 -111.381924 -111.361380    0.020544   1.000    0.00642    0.00511
        252    21 -111.381766 -111.363192    0.018574   1.000    0.00631    0.00489
        253    21 -111.381600 -111.364897    0.016703   1.000    0.00620    0.00467
        254    21 -111.381423 -111.366494    0.014929   1.000    0.00610    0.00446
        255    21 -111.381240 -111.367992    0.013248   1.000    0.00600    0.00425
        256    21 -111.381042 -111.369371    0.011671   1.000    0.00590    0.00405
        257    21 -111.380849 -111.370635    0.010214   1.000    0.00581    0.00386
        258    24 -111.380619 -111.371743    0.008876   1.000    0.00562    0.00376
        259    24 -111.380462 -111.373226    0.007235   1.000    0.00549    0.00356
        260    24 -111.380291 -111.374360    0.005932   1.000    0.00539    0.00340
        261    24 -111.380093 -111.375266    0.004827   1.000    0.00529    0.00325
        262    24 -111.379871 -111.376039    0.003832   1.000    0.00521    0.00311
        263    24 -111.379645 -111.376714    0.002931   1.000    0.00514    0.00296
        264    26 -111.379412 -111.377296    0.002116   1.000    0.00507    0.00282
        265    24 -111.379202 -111.377772    0.001430   1.000    0.00501    0.00268
        266    26 -111.378983 -111.378145    0.000838   1.000    0.00496    0.00255
        267    25 -111.378767 -111.378394    0.000372   1.000    0.00490    0.00242
        268    26 -111.378602 -111.378526    0.000076   1.000    0.00485    0.00231
        269    26 -111.378407 -111.378547    0.000140   1.000    0.00480    0.00220
        270    26 -111.378251 -111.378467    0.000217   1.000    0.00474    0.00210
        271    25 -111.378101 -111.378308    0.000208   1.000    0.00469    0.00201
        272    26 -111.377964 -111.378086    0.000123   1.000    0.00464    0.00193
        273    26 -111.377879 -111.377821    0.000058   1.000    0.00459    0.00186
        274    26 -111.377781 -111.377525    0.000255   1.000    0.00454    0.00180
        275    26 -111.377734 -111.377362    0.000372   1.000    0.00449    0.00174
        276    26 -111.377701 -111.377184    0.000517   1.000    0.00444    0.00168
        277    26 -111.377688 -111.376946    0.000742   1.000    0.00439    0.00163
        278    26 -111.377664 -111.376713    0.000951   1.000    0.00434    0.00158
        279    26 -111.377657 -111.376491    0.001166   1.000    0.00430    0.00153
        280    26 -111.377648 -111.376293    0.001355   1.000    0.00426    0.00149
        281    26 -111.377649 -111.376127    0.001522   1.000    0.00422    0.00146
        282    26 -111.377664 -111.375996    0.001668   1.000    0.00417    0.00143
        283    26 -111.377674 -111.375926    0.001748   1.000    0.00412    0.00142
        284    26 -111.377687 -111.375961    0.001726   1.000    0.00407    0.00141
        285    26 -111.377679 -111.376089    0.001590   1.000    0.00402    0.00138
        286    27 -111.377691 -111.376213    0.001478   1.000    0.00398    0.00136
        287    26 -111.377693 -111.376316    0.001378   1.000    0.00394    0.00134
        288    26 -111.377687 -111.376411    0.001277   1.000    0.00389    0.00137
        289    26 -111.377667 -111.376598    0.001069   1.000    0.00384    0.00133
        290    27 -111.377644 -111.376735    0.000909   1.000    0.00380    0.00131
        291    27 -111.377607 -111.376814    0.000793   1.000    0.00377    0.00130
        292    27 -111.377563 -111.376865    0.000698   1.000    0.00373    0.00128
        293    27 -111.377537 -111.376875    0.000662   1.000    0.00369    0.00127
        294    26 -111.377484 -111.376857    0.000627   1.000    0.00366    0.00126
        295    26 -111.377461 -111.376816    0.000645   1.000    0.00363    0.00125
        296    26 -111.377413 -111.376759    0.000654   1.000    0.00359    0.00125
        297    26 -111.377382 -111.376697    0.000685   1.000    0.00356    0.00124
        298    27 -111.377353 -111.376632    0.000720   1.000    0.00353    0.00123
        299    26 -111.377327 -111.376570    0.000757   1.000    0.00350    0.00122
        300    26 -111.377291 -111.376513    0.000778   1.000    0.00347    0.00121
        301    26 -111.377276 -111.376460    0.000816   1.000    0.00344    0.00119
        302    26 -111.377256 -111.376412    0.000844   1.000    0.00342    0.00118
        303    27 -111.377227 -111.376366    0.000861   1.000    0.00339    0.00117
        304    27 -111.377213 -111.376322    0.000891   1.000    0.00336    0.00116
        305    27 -111.377204 -111.376278    0.000926   1.000    0.00334    0.00115
        306    26 -111.377192 -111.376231    0.000961   1.000    0.00331    0.00114
        307    27 -111.377189 -111.376187    0.001002   1.000    0.00328    0.00113
        308    26 -111.377182 -111.376141    0.001040   1.000    0.00326    0.00112
        309    26 -111.377165 -111.376098    0.001067   1.000    0.00323    0.00111
        310    27 -111.377164 -111.376057    0.001106   1.000    0.00321    0.00110
        311    26 -111.377166 -111.376023    0.001143   1.000    0.00319    0.00109
        312    26 -111.377162 -111.375996    0.001166   1.000    0.00316    0.00108
        313    26 -111.377168 -111.375978    0.001191   1.000    0.00314    0.00107
        314    26 -111.377164 -111.375970    0.001194   1.000    0.00312    0.00106
        315    26 -111.377172 -111.375973    0.001199   1.000    0.00310    0.00105
        316    26 -111.377167 -111.375986    0.001181   1.000    0.00305    0.00110
        317    26 -111.377167 -111.376102    0.001065   1.000    0.00302    0.00106
        318    27 -111.377169 -111.376216    0.000954   1.000    0.00299    0.00106
        319    26 -111.377160 -111.376325    0.000835   1.000    0.00296    0.00105
        320    26 -111.377154 -111.376425    0.000729   1.000    0.00294    0.00104
        321    27 -111.377152 -111.376509    0.000643   1.000    0.00292    0.00103
        322    27 -111.377138 -111.376577    0.000561   1.000    0.00290    0.00102
        323    26 -111.377116 -111.376632    0.000484   1.000    0.00288    0.00100
        324    26 -111.377092 -111.376677    0.000415   1.000    0.00286    0.00099
        325    26 -111.377077 -111.376714    0.000364   1.000    0.00284    0.00097
        326    26 -111.377051 -111.376745    0.000306   1.000    0.00282    0.00096
        327    26 -111.377022 -111.376770    0.000252   1.000    0.00280    0.00095
        328    26 -111.377002 -111.376789    0.000213   1.000    0.00278    0.00093
        329    26 -111.376975 -111.376802    0.000173   1.000    0.00276    0.00092
        330    26 -111.376955 -111.376809    0.000146   1.000    0.00274    0.00091
        331    25 -111.376926 -111.376811    0.000115   1.000    0.00272    0.00089
        332    26 -111.376911 -111.376808    0.000103   1.000    0.00270    0.00090
        333    25 -111.376886 -111.376912    0.000025   1.000    0.00268    0.00088
        334    26 -111.376859 -111.376950    0.000091   1.000    0.00266    0.00087
        335    25 -111.376836 -111.376976    0.000140   1.000    0.00264    0.00086
        336    26 -111.376815 -111.376992    0.000177   1.000    0.00261    0.00088
        337    26 -111.376791 -111.377071    0.000279   1.000    0.00258    0.00085
        338    26 -111.376765 -111.377131    0.000366   1.000    0.00256    0.00084
        339    25 -111.376741 -111.377176    0.000435   1.000    0.00254    0.00083
        340    26 -111.376717 -111.377202    0.000485   1.000    0.00252    0.00082
        341    26 -111.376694 -111.377241    0.000546   1.000    0.00250    0.00082
        342    26 -111.376671 -111.377311    0.000639   1.000    0.00248    0.00080
        343    26 -111.376649 -111.377321    0.000671   1.000    0.00247    0.00079
        344    27 -111.376618 -111.377318    0.000699   1.000    0.00245    0.00077
        345    26 -111.376596 -111.377303    0.000707   1.000    0.00244    0.00076
        346    26 -111.376579 -111.377281    0.000701   1.000    0.00242    0.00074
        347    26 -111.376557 -111.377254    0.000698   1.000    0.00241    0.00073
        348    26 -111.376538 -111.377225    0.000687   1.000    0.00239    0.00072
        349    26 -111.376512 -111.377193    0.000681   1.000    0.00238    0.00070
        350    26 -111.376499 -111.377161    0.000662   1.000    0.00236    0.00069
        351    27 -111.376490 -111.377131    0.000640   1.000    0.00235    0.00068
        352    26 -111.376480 -111.377102    0.000623   1.000    0.00234    0.00067
        353    28 -111.376470 -111.377076    0.000606   1.000    0.00232    0.00065
        354    26 -111.376459 -111.377055    0.000596   1.000    0.00231    0.00064
        355    26 -111.376453 -111.377036    0.000583   1.000    0.00230    0.00063
        356    26 -111.376444 -111.377021    0.000577   1.000    0.00228    0.00062
        357    26 -111.376435 -111.377008    0.000574   1.000    0.00227    0.00060
        358    28 -111.376426 -111.376996    0.000571   1.000    0.00226    0.00059
        359    28 -111.376416 -111.376986    0.000570   1.000    0.00225    0.00058
        360    28 -111.376406 -111.376974    0.000568   1.000    0.00224    0.00057
        361    28 -111.376395 -111.376960    0.000565   1.000    0.00222    0.00056
        362    28 -111.376382 -111.376944    0.000561   1.000    0.00221    0.00055
        363    28 -111.376373 -111.376924    0.000551   1.000    0.00220    0.00054
        364    28 -111.376363 -111.376900    0.000538   1.000    0.00219    0.00053
        365    28 -111.376352 -111.376873    0.000521   1.000    0.00218    0.00052
        366    28 -111.376341 -111.376843    0.000502   1.000    0.00217    0.00051
        367    28 -111.376332 -111.376810    0.000478   1.000    0.00215    0.00050
        368    30 -111.376320 -111.376771    0.000451   1.000    0.00214    0.00049
        369    29 -111.376312 -111.376738    0.000427   1.000    0.00213    0.00048
        370    30 -111.376304 -111.376701    0.000397   1.000    0.00212    0.00048
        371    29 -111.376296 -111.376663    0.000368   1.000    0.00211    0.00047
        372    30 -111.376288 -111.376624    0.000336   1.000    0.00210    0.00046
        373    29 -111.376281 -111.376587    0.000306   1.000    0.00209    0.00045
        374    30 -111.376274 -111.376548    0.000274   1.000    0.00208    0.00044
        375    29 -111.376267 -111.376510    0.000243   1.000    0.00207    0.00043
        376    30 -111.376261 -111.376472    0.000211   1.000    0.00206    0.00043
        377    29 -111.376254 -111.376434    0.000179   1.000    0.00205    0.00042
        378    30 -111.376247 -111.376394    0.000147   1.000    0.00204    0.00041
        379    29 -111.376241 -111.376355    0.000113   1.000    0.00203    0.00040
        380    30 -111.376235 -111.376313    0.000078   1.000    0.00202    0.00040
        381    29 -111.376230 -111.376273    0.000043   1.000    0.00201    0.00039
        382    30 -111.376223 -111.376230    0.000007   1.000    0.00200    0.00038
        383    29 -111.376219 -111.376188    0.000031   1.000    0.00199    0.00038
        384    30 -111.376214 -111.376144    0.000069   1.000    0.00198    0.00037
        385    29 -111.376210 -111.376102    0.000108   1.000    0.00197    0.00037
        386    30 -111.376206 -111.376059    0.000147   1.000    0.00196    0.00036
        387    30 -111.376203 -111.376018    0.000184   1.000    0.00195    0.00036
        388    30 -111.376200 -111.375978    0.000222   1.000    0.00194    0.00035
        389    30 -111.376198 -111.375940    0.000258   1.000    0.00193    0.00035
        390    30 -111.376196 -111.375905    0.000292   1.000    0.00192    0.00034
        391    30 -111.376195 -111.375872    0.000324   1.000    0.00191    0.00034
        392    30 -111.376194 -111.375841    0.000353   1.000    0.00190    0.00033
        393    30 -111.376193 -111.375813    0.000380   1.000    0.00189    0.00033
        394    30 -111.376193 -111.375788    0.000405   1.000    0.00189    0.00033
        395    30 -111.376193 -111.375766    0.000427   1.000    0.00188    0.00032
        396    30 -111.376192 -111.375747    0.000445   1.000    0.00187    0.00032
        397    30 -111.376192 -111.375730    0.000462   1.000    0.00186    0.00031
        398    30 -111.376191 -111.375715    0.000476   1.000    0.00185    0.00031
        399    30 -111.376191 -111.375703    0.000488   1.000    0.00184    0.00031
        400    30 -111.376189 -111.375693    0.000496   1.000    0.00183    0.00030
        401    30 -111.376188 -111.375684    0.000504   1.000    0.00183    0.00030
        402    30 -111.376187 -111.375677    0.000510   1.000    0.00182    0.00029
        403    30 -111.376186 -111.375671    0.000515   1.000    0.00181    0.00029
        404    30 -111.376184 -111.375666    0.000518   1.000    0.00180    0.00029
        405    30 -111.376182 -111.375662    0.000520   1.000    0.00179    0.00028
        406    30 -111.376180 -111.375659    0.000521   1.000    0.00179    0.00028
        407    30 -111.376177 -111.375656    0.000521   1.000    0.00178    0.00028
        408    30 -111.376175 -111.375654    0.000520   1.000    0.00177    0.00028
        409    30 -111.376172 -111.375653    0.000519   1.000    0.00176    0.00027
        410    30 -111.376169 -111.375652    0.000517   1.000    0.00175    0.00027
        411    30 -111.376166 -111.375652    0.000515   1.000    0.00175    0.00027
        412    30 -111.376163 -111.375652    0.000511   1.000    0.00174    0.00027
        413    30 -111.376160 -111.375652    0.000509   1.000    0.00173    0.00026
        414    30 -111.376156 -111.375652    0.000504   1.000    0.00172    0.00026
        415    30 -111.376153 -111.375653    0.000500   1.000    0.00172    0.00026
        416    30 -111.376149 -111.375654    0.000496   1.000    0.00171    0.00026
        417    30 -111.376146 -111.375655    0.000491   1.000    0.00170    0.00025
        418    30 -111.376142 -111.375656    0.000486   1.000    0.00169    0.00025
        419    30 -111.376138 -111.375657    0.000481   1.000    0.00169    0.00025
        420    30 -111.376134 -111.375659    0.000476   1.000    0.00168    0.00025
        421    30 -111.376130 -111.375660    0.000470   1.000    0.00167    0.00025
        422    30 -111.376126 -111.375661    0.000465   1.000    0.00167    0.00024
        423    30 -111.376122 -111.375662    0.000460   1.000    0.00166    0.00024
        424    30 -111.376118 -111.375663    0.000455   1.000    0.00165    0.00024
        425    30 -111.376114 -111.375665    0.000449   1.000    0.00165    0.00024
        426    30 -111.376110 -111.375665    0.000445   1.000    0.00164    0.00024
        427    30 -111.376106 -111.375666    0.000440   1.000    0.00163    0.00023
        428    30 -111.376102 -111.375666    0.000436   1.000    0.00163    0.00023
        429    30 -111.376098 -111.375667    0.000431   1.000    0.00162    0.00023
        430    30 -111.376094 -111.375667    0.000427   1.000    0.00161    0.00023
        431    30 -111.376090 -111.375667    0.000423   1.000    0.00161    0.00023
        432    30 -111.376086 -111.375666    0.000419   1.000    0.00160    0.00022
        433    30 -111.376081 -111.375666    0.000416   1.000    0.00159    0.00022
        434    30 -111.376078 -111.375665    0.000413   1.000    0.00159    0.00022
        435    30 -111.376073 -111.375664    0.000409   1.000    0.00158    0.00022
        436    30 -111.376069 -111.375662    0.000407   1.000    0.00157    0.00022
        437    30 -111.376065 -111.375661    0.000404   1.000    0.00157    0.00021
        438    30 -111.376061 -111.375659    0.000402   1.000    0.00156    0.00021
        439    30 -111.376057 -111.375656    0.000400   1.000    0.00156    0.00021
        440    30 -111.376052 -111.375654    0.000399   1.000    0.00155    0.00021
        441    30 -111.376048 -111.375650    0.000398   1.000    0.00154    0.00021
        442    30 -111.376044 -111.375647    0.000397   1.000    0.00154    0.00021
        443    30 -111.376040 -111.375643    0.000397   1.000    0.00153    0.00020
        444    30 -111.376036 -111.375638    0.000398   1.000    0.00153    0.00020
        445    30 -111.376031 -111.375634    0.000397   1.000    0.00152    0.00020
        446    30 -111.376027 -111.375629    0.000398   1.000    0.00151    0.00020
        447    30 -111.376023 -111.375623    0.000400   1.000    0.00151    0.00020
        448    30 -111.376019 -111.375618    0.000402   1.000    0.00150    0.00020
        449    30 -111.376015 -111.375612    0.000404   1.000    0.00150    0.00020
        450    30 -111.376012 -111.375605    0.000406   1.000    0.00149    0.00019
        451    30 -111.376007 -111.375599    0.000408   1.000    0.00149    0.00019
        452    30 -111.376004 -111.375592    0.000412   1.000    0.00148    0.00019
        453    30 -111.376000 -111.375586    0.000414   1.000    0.00147    0.00019
        454    30 -111.375997 -111.375579    0.000418   1.000    0.00147    0.00019
        455    30 -111.375993 -111.375572    0.000421   1.000    0.00146    0.00019
        456    30 -111.375990 -111.375568    0.000422   1.000    0.00146    0.00019
        457    30 -111.375988 -111.375583    0.000406   1.000    0.00145    0.00018
        458    30 -111.375987 -111.375576    0.000411   1.000    0.00145    0.00018
        459    30 -111.375987 -111.375564    0.000423   1.000    0.00144    0.00018
        460    30 -111.375964 -111.375550    0.000414   1.000    0.00143    0.00018
        461    30 -111.375953 -111.375571    0.000382   1.000    0.00143    0.00018
        462    30 -111.375947 -111.375578    0.000368   1.000    0.00142    0.00018
        463    30 -111.375941 -111.375575    0.000365   1.000    0.00142    0.00018
        464    30 -111.375935 -111.375568    0.000367   1.000    0.00141    0.00018
        465    30 -111.375930 -111.375557    0.000373   1.000    0.00141    0.00018
        466    30 -111.375925 -111.375544    0.000381   1.000    0.00140    0.00018
        467    30 -111.375920 -111.375530    0.000390   1.000    0.00140    0.00018
        468    30 -111.375916 -111.375516    0.000400   1.000    0.00139    0.00018
        469    30 -111.375912 -111.375502    0.000409   1.000    0.00139    0.00018
        470    30 -111.375908 -111.375490    0.000418   1.000    0.00138    0.00018
        471    30 -111.375905 -111.375478    0.000428   1.000    0.00138    0.00017
        472    30 -111.375902 -111.375467    0.000435   1.000    0.00137    0.00017
        473    30 -111.375900 -111.375459    0.000442   1.000    0.00137    0.00017
        474    30 -111.375899 -111.375452    0.000447   1.000    0.00136    0.00017
        475    30 -111.375897 -111.375446    0.000451   1.000    0.00136    0.00017
        476    30 -111.375896 -111.375442    0.000454   1.000    0.00135    0.00017
        477    30 -111.375894 -111.375440    0.000454   1.000    0.00135    0.00017
        478    30 -111.375893 -111.375439    0.000454   1.000    0.00134    0.00016
        479    30 -111.375891 -111.375440    0.000451   1.000    0.00134    0.00016
        480    30 -111.375889 -111.375442    0.000448   1.000    0.00133    0.00016
        481    30 -111.375887 -111.375444    0.000443   1.000    0.00133    0.00016
        482    30 -111.375885 -111.375448    0.000437   1.000    0.00132    0.00016
        483    30 -111.375882 -111.375452    0.000431   1.000    0.00132    0.00016
        484    30 -111.375880 -111.375456    0.000424   1.000    0.00131    0.00016
        485    30 -111.375876 -111.375461    0.000416   1.000    0.00131    0.00016
        486    30 -111.375873 -111.375466    0.000408   1.000    0.00130    0.00016
        487    30 -111.375870 -111.375470    0.000400   1.000    0.00130    0.00015
        488    30 -111.375866 -111.375475    0.000392   1.000    0.00130    0.00015
        489    30 -111.375863 -111.375479    0.000384   1.000    0.00129    0.00015
        490    30 -111.375859 -111.375482    0.000376   1.000    0.00129    0.00015
        491    30 -111.375854 -111.375485    0.000369   1.000    0.00128    0.00015
        492    30 -111.375851 -111.375487    0.000364   1.000    0.00128    0.00015
        493    30 -111.375847 -111.375489    0.000358   1.000    0.00127    0.00015
        494    30 -111.375843 -111.375489    0.000354   1.000    0.00127    0.00015
        495    30 -111.375839 -111.375489    0.000350   1.000    0.00127    0.00015
        496    30 -111.375835 -111.375488    0.000347   1.000    0.00126    0.00015
        497    30 -111.375831 -111.375486    0.000345   1.000    0.00126    0.00015
        498    30 -111.375828 -111.375484    0.000344   1.000    0.00125    0.00015
        499    30 -111.375824 -111.375481    0.000343   1.000    0.00125    0.00014

        ==> Orbital Optimization <==

            Orbital Optimization did not converge in  20 iterations 
            Total energy change: -1.960082e-04
            Final gradient norm: 6.017716e-04

        500    30 -111.376017 -111.360553    0.015464   8.672    0.00124    0.00014
        501    42 -111.376096 -111.359990    0.016105   8.672    0.00125    0.00446
        502    30 -111.376176 -111.362343    0.013833   8.672    0.00126    0.00327
        503    30 -111.376231 -111.365092    0.011138   8.672    0.00124    0.00271
        504    30 -111.376254 -111.367745    0.008509   8.672    0.00122    0.00248
        505    30 -111.376250 -111.370078    0.006173   8.672    0.00119    0.00239
        506    30 -111.376231 -111.372042    0.004189   8.672    0.00117    0.00236
        507    30 -111.376205 -111.373725    0.002480   8.672    0.00115    0.00237
        508    30 -111.376179 -111.375250    0.000929   8.672    0.00113    0.00240
        509    30 -111.376154 -111.376697    0.000543   8.672    0.00111    0.00244
        510    30 -111.376128 -111.378086    0.001958   8.672    0.00109    0.00248
        511    30 -111.376100 -111.379385    0.003285   8.672    0.00106    0.00255
        512    30 -111.376071 -111.380626    0.004556   8.672    0.00105    0.00256
        513    30 -111.376039 -111.381708    0.005669   8.672    0.00103    0.00257
        514    30 -111.376005 -111.382534    0.006530   8.672    0.00101    0.00260
        515    30 -111.375969 -111.383115    0.007147   8.672    0.00099    0.00263
        516    30 -111.375932 -111.383475    0.007543   8.672    0.00097    0.00268
        517    30 -111.375897 -111.383727    0.007829   8.672    0.00095    0.00283
        518    30 -111.375864 -111.384060    0.008196   8.672    0.00093    0.00279
        519    30 -111.375834 -111.384167    0.008333   8.672    0.00091    0.00285
        520    30 -111.375804 -111.384202    0.008397   8.672    0.00090    0.00289
        521    30 -111.375776 -111.384164    0.008389   8.672    0.00088    0.00293
        522    30 -111.375748 -111.384075    0.008327   8.672    0.00086    0.00296
        523    30 -111.375722 -111.383948    0.008226   8.672    0.00085    0.00298
        524    30 -111.375696 -111.383793    0.008097   8.672    0.00083    0.00299
        525    30 -111.375672 -111.383674    0.008002   8.672    0.00082    0.00299
        526    30 -111.375648 -111.383601    0.007954   8.672    0.00081    0.00297
        527    30 -111.375625 -111.383523    0.007898   8.672    0.00079    0.00295
        528    30 -111.375604 -111.383418    0.007814   8.672    0.00078    0.00293
        529    30 -111.375584 -111.383269    0.007686   8.672    0.00077    0.00290
        530    30 -111.375565 -111.383066    0.007501   8.672    0.00075    0.00287
        531    30 -111.375548 -111.382803    0.007255   8.672    0.00074    0.00284
        532    30 -111.375532 -111.382479    0.006947   8.672    0.00073    0.00281
        533    30 -111.375516 -111.382120    0.006604   8.672    0.00072    0.00283
        534    30 -111.375499 -111.381817    0.006318   8.672    0.00071    0.00275
        535    30 -111.375484 -111.381372    0.005888   8.672    0.00069    0.00272
        536    30 -111.375471 -111.380874    0.005403   8.672    0.00068    0.00268
        537    30 -111.375459 -111.380339    0.004880   8.672    0.00067    0.00265
        538    30 -111.375449 -111.379781    0.004332   8.672    0.00067    0.00261
        539    30 -111.375441 -111.379215    0.003774   8.672    0.00066    0.00257
        540    30 -111.375434 -111.378651    0.003217   8.672    0.00065    0.00254
        541    30 -111.375429 -111.378097    0.002668   8.672    0.00064    0.00250
        542    30 -111.375426 -111.377558    0.002133   8.672    0.00063    0.00248
        543    30 -111.375424 -111.377042    0.001619   8.672    0.00062    0.00245
        544    30 -111.375423 -111.376551    0.001128   8.672    0.00062    0.00243
        545    30 -111.375424 -111.376089    0.000666   8.672    0.00061    0.00241
        546    30 -111.375426 -111.375658    0.000232   8.672    0.00060    0.00240
        547    30 -111.375428 -111.375262    0.000166   8.672    0.00059    0.00239
        548    30 -111.375432 -111.374899    0.000533   8.672    0.00058    0.00238
        549    30 -111.375435 -111.374577    0.000857   8.672    0.00058    0.00238
        550    30 -111.375439 -111.374288    0.001150   8.672    0.00057    0.00237
        551    30 -111.375442 -111.374039    0.001404   8.672    0.00056    0.00236
        552    30 -111.375446 -111.373820    0.001626   8.672    0.00055    0.00236
        553    30 -111.375449 -111.373635    0.001814   8.672    0.00055    0.00236
        554    30 -111.375453 -111.373476    0.001976   8.672    0.00054    0.00235
        555    30 -111.375455 -111.373345    0.002111   8.672    0.00053    0.00235
        556    30 -111.375458 -111.373231    0.002227   8.672    0.00053    0.00234
        557    30 -111.375460 -111.373138    0.002322   8.672    0.00052    0.00234
        558    30 -111.375462 -111.373060    0.002403   8.672    0.00052    0.00233
        559    30 -111.375464 -111.372996    0.002468   8.672    0.00051    0.00232
        560    30 -111.375466 -111.372945    0.002521   8.672    0.00050    0.00231
        561    30 -111.375468 -111.372906    0.002562   8.672    0.00050    0.00230
        562    30 -111.375470 -111.372880    0.002590   8.672    0.00049    0.00229
        563    30 -111.375471 -111.372866    0.002605   8.672    0.00049    0.00227
        564    30 -111.375473 -111.372867    0.002606   8.672    0.00048    0.00226
        565    30 -111.375475 -111.372885    0.002590   8.672    0.00048    0.00224
        566    30 -111.375477 -111.372920    0.002557   8.672    0.00047    0.00223
        567    30 -111.375478 -111.372972    0.002506   8.672    0.00047    0.00221
        568    30 -111.375480 -111.373042    0.002438   8.672    0.00046    0.00219
        569    30 -111.375481 -111.373133    0.002348   8.672    0.00046    0.00217
        570    30 -111.375481 -111.373243    0.002239   8.672    0.00045    0.00215
        571    30 -111.375482 -111.373369    0.002113   8.672    0.00045    0.00213
        572    30 -111.375482 -111.373514    0.001968   8.672    0.00045    0.00212
        573    30 -111.375481 -111.373673    0.001809   8.672    0.00044    0.00210
        574    30 -111.375481 -111.373845    0.001635   8.672    0.00044    0.00208
        575    30 -111.375479 -111.374030    0.001450   8.672    0.00043    0.00206
        576    30 -111.375477 -111.374249    0.001228   8.672    0.00043    0.00205
        577    30 -111.375474 -111.374562    0.000912   8.672    0.00043    0.00204
        578    30 -111.375468 -111.374928    0.000540   8.672    0.00042    0.00201
        579    30 -111.375461 -111.375222    0.000239   8.672    0.00042    0.00199
        580    30 -111.375453 -111.375493    0.000040   8.672    0.00041    0.00198
        581    30 -111.375445 -111.375739    0.000294   8.672    0.00041    0.00196
        582    30 -111.375436 -111.375957    0.000521   8.672    0.00040    0.00194
        583    30 -111.375428 -111.376147    0.000720   8.672    0.00040    0.00192
        584    30 -111.375419 -111.376311    0.000892   8.672    0.00040    0.00192
        585    30 -111.375411 -111.376539    0.001128   8.672    0.00039    0.00190
        586    30 -111.375401 -111.376749    0.001348   8.672    0.00039    0.00188
        587    30 -111.375392 -111.376862    0.001470   8.672    0.00038    0.00187
        588    30 -111.375383 -111.376938    0.001555   8.672    0.00038    0.00185
        589    30 -111.375374 -111.376985    0.001611   8.672    0.00038    0.00183
        590    30 -111.375366 -111.377009    0.001643   8.672    0.00037    0.00181
        591    30 -111.375358 -111.377013    0.001655   8.672    0.00037    0.00179
        592    30 -111.375350 -111.377000    0.001650   8.672    0.00036    0.00179
        593    30 -111.375342 -111.377111    0.001770   8.672    0.00036    0.00176
        594    30 -111.375333 -111.377174    0.001841   8.672    0.00035    0.00174
        595    30 -111.375325 -111.377135    0.001810   8.672    0.00035    0.00172
        596    30 -111.375317 -111.377064    0.001747   8.672    0.00035    0.00169
        597    30 -111.375310 -111.376978    0.001668   8.672    0.00035    0.00167
        598    36 -111.375303 -111.376883    0.001580   8.672    0.00034    0.00165
        599    34 -111.375297 -111.376780    0.001483   8.672    0.00034    0.00163
        600    36 -111.375291 -111.376673    0.001382   8.672    0.00034    0.00160
        601    34 -111.375286 -111.376559    0.001274   8.672    0.00033    0.00158
        602    36 -111.375280 -111.376443    0.001163   8.672    0.00033    0.00156
        603    36 -111.375276 -111.376323    0.001047   8.672    0.00033    0.00154
        604    35 -111.375272 -111.376202    0.000930   8.672    0.00033    0.00152
        605    36 -111.375268 -111.376090    0.000822   8.672    0.00032    0.00157
        606    37 -111.375263 -111.376189    0.000926   8.672    0.00032    0.00150
        607    35 -111.375259 -111.376117    0.000858   8.672    0.00031    0.00150
        608    30 -111.375254 -111.376029    0.000774   8.672    0.00031    0.00148
        609    30 -111.375251 -111.375936    0.000686   8.672    0.00030    0.00147
        610    35 -111.375247 -111.375847    0.000600   8.672    0.00030    0.00145
        611    35 -111.375244 -111.375761    0.000517   8.672    0.00030    0.00143
        612    35 -111.375240 -111.375678    0.000437   8.672    0.00030    0.00141
        613    35 -111.375236 -111.375596    0.000360   8.672    0.00029    0.00139
        614    35 -111.375233 -111.375515    0.000282   8.672    0.00029    0.00137
        615    35 -111.375229 -111.375432    0.000203   8.672    0.00029    0.00135
        616    35 -111.375225 -111.375349    0.000123   8.672    0.00028    0.00133
        617    35 -111.375222 -111.375264    0.000042   8.672    0.00028    0.00131
        618    35 -111.375219 -111.375178    0.000041   8.672    0.00028    0.00130
        619    35 -111.375217 -111.375093    0.000124   8.672    0.00028    0.00128
        620    35 -111.375214 -111.375009    0.000206   8.672    0.00027    0.00126
        621    35 -111.375213 -111.374927    0.000286   8.672    0.00027    0.00125
        622    35 -111.375212 -111.374850    0.000361   8.672    0.00027    0.00123
        623    35 -111.375211 -111.374780    0.000431   8.672    0.00027    0.00122
        624    35 -111.375210 -111.374717    0.000493   8.672    0.00026    0.00120
        625    35 -111.375210 -111.374663    0.000547   8.672    0.00026    0.00119
        626    35 -111.375210 -111.374619    0.000591   8.672    0.00026    0.00118
        627    35 -111.375211 -111.374586    0.000624   8.672    0.00026    0.00116
        628    35 -111.375211 -111.374564    0.000647   8.672    0.00026    0.00115
        629    35 -111.375211 -111.374552    0.000659   8.672    0.00025    0.00114
        630    35 -111.375212 -111.374551    0.000661   8.672    0.00025    0.00113
        631    35 -111.375212 -111.374560    0.000653   8.672    0.00025    0.00111
        632    35 -111.375212 -111.374577    0.000635   8.672    0.00025    0.00110
        633    35 -111.375212 -111.374603    0.000609   8.672    0.00025    0.00109
        634    35 -111.375212 -111.374637    0.000575   8.672    0.00024    0.00108
        635    35 -111.375212 -111.374679    0.000534   8.672    0.00024    0.00107
        636    35 -111.375212 -111.374729    0.000483   8.672    0.00024    0.00107
        637    35 -111.375211 -111.374814    0.000397   8.672    0.00024    0.00108
        638    35 -111.375212 -111.374961    0.000250   8.672    0.00023    0.00106
        639    35 -111.375212 -111.375078    0.000133   8.672    0.00023    0.00106
        640    35 -111.375211 -111.375187    0.000025   8.672    0.00023    0.00105
        641    35 -111.375211 -111.375283    0.000072   8.672    0.00023    0.00104
        642    35 -111.375210 -111.375366    0.000156   8.672    0.00022    0.00102
        643    35 -111.375208 -111.375436    0.000228   8.672    0.00022    0.00101
        644    35 -111.375205 -111.375494    0.000288   8.672    0.00022    0.00099
        645    35 -111.375203 -111.375541    0.000338   8.672    0.00022    0.00097
        646    35 -111.375199 -111.375578    0.000379   8.672    0.00022    0.00096
        647    35 -111.375196 -111.375607    0.000411   8.672    0.00022    0.00094
        648    35 -111.375193 -111.375629    0.000436   8.672    0.00021    0.00093
        649    35 -111.375190 -111.375645    0.000455   8.672    0.00021    0.00092
        650    35 -111.375187 -111.375657    0.000470   8.672    0.00021    0.00091
        651    35 -111.375184 -111.375667    0.000483   8.672    0.00021    0.00090
        652    35 -111.375182 -111.375675    0.000493   8.672    0.00021    0.00089
        653    35 -111.375180 -111.375683    0.000503   8.672    0.00021    0.00088
        654    35 -111.375178 -111.375691    0.000513   8.672    0.00020    0.00087
        655    35 -111.375176 -111.375700    0.000524   8.672    0.00020    0.00087
        656    35 -111.375174 -111.375709    0.000535   8.672    0.00020    0.00086
        657    35 -111.375173 -111.375719    0.000546   8.672    0.00020    0.00085
        658    35 -111.375171 -111.375730    0.000558   8.672    0.00020    0.00084
        659    35 -111.375170 -111.375740    0.000570   8.672    0.00020    0.00083
        660    35 -111.375168 -111.375750    0.000582   8.672    0.00019    0.00083
        661    35 -111.375167 -111.375759    0.000592   8.672    0.00019    0.00082
        662    35 -111.375166 -111.375765    0.000600   8.672    0.00019    0.00081
        663    35 -111.375164 -111.375769    0.000605   8.672    0.00019    0.00081
        664    35 -111.375162 -111.375771    0.000608   8.672    0.00019    0.00080
        665    35 -111.375161 -111.375769    0.000608   8.672    0.00019    0.00079
        666    35 -111.375159 -111.375764    0.000605   8.672    0.00019    0.00079
        667    35 -111.375158 -111.375756    0.000599   8.672    0.00019    0.00078
        668    35 -111.375156 -111.375746    0.000589   8.672    0.00018    0.00077
        669    35 -111.375155 -111.375733    0.000578   8.672    0.00018    0.00077
        670    35 -111.375154 -111.375718    0.000564   8.672    0.00018    0.00076
        671    35 -111.375153 -111.375701    0.000549   8.672    0.00018    0.00076
        672    35 -111.375151 -111.375684    0.000533   8.672    0.00018    0.00075
        673    35 -111.375150 -111.375666    0.000515   8.672    0.00018    0.00075
        674    35 -111.375149 -111.375647    0.000498   8.672    0.00018    0.00074
        675    35 -111.375148 -111.375629    0.000480   8.672    0.00018    0.00074
        676    35 -111.375147 -111.375611    0.000463   8.672    0.00017    0.00073
        677    35 -111.375147 -111.375593    0.000446   8.672    0.00017    0.00073
        678    35 -111.375146 -111.375578    0.000432   8.672    0.00017    0.00072
        679    35 -111.375145 -111.375565    0.000420   8.672    0.00017    0.00072
        680    35 -111.375144 -111.375553    0.000409   8.672    0.00017    0.00071
        681    35 -111.375144 -111.375540    0.000397   8.672    0.00017    0.00071
        682    35 -111.375143 -111.375528    0.000385   8.672    0.00017    0.00070
        683    35 -111.375142 -111.375515    0.000373   8.672    0.00017    0.00070
        684    35 -111.375142 -111.375502    0.000361   8.672    0.00017    0.00069
        685    35 -111.375141 -111.375490    0.000349   8.672    0.00017    0.00069
        686    35 -111.375140 -111.375478    0.000337   8.672    0.00016    0.00068
        687    35 -111.375140 -111.375466    0.000326   8.672    0.00016    0.00068
        688    35 -111.375139 -111.375454    0.000315   8.672    0.00016    0.00068
        689    35 -111.375139 -111.375443    0.000305   8.672    0.00016    0.00067
        690    35 -111.375138 -111.375432    0.000294   8.672    0.00016    0.00067
        691    35 -111.375137 -111.375423    0.000285   8.672    0.00016    0.00066
        692    35 -111.375137 -111.375413    0.000276   8.672    0.00016    0.00066
        693    35 -111.375136 -111.375405    0.000268   8.672    0.00016    0.00066
        694    35 -111.375136 -111.375397    0.000261   8.672    0.00016    0.00065
        695    35 -111.375136 -111.375390    0.000254   8.672    0.00016    0.00065
        696    35 -111.375135 -111.375384    0.000249   8.672    0.00015    0.00064
        697    35 -111.375135 -111.375380    0.000245   8.672    0.00015    0.00064
        698    35 -111.375134 -111.375376    0.000242   8.672    0.00015    0.00064
        699    35 -111.375134 -111.375374    0.000240   8.672    0.00015    0.00063
        700    35 -111.375134 -111.375372    0.000239   8.672    0.00015    0.00063
        701    35 -111.375133 -111.375372    0.000239   8.672    0.00015    0.00063
        702    35 -111.375133 -111.375373    0.000240   8.672    0.00015    0.00062
        703    35 -111.375133 -111.375375    0.000242   8.672    0.00015    0.00062
        704    35 -111.375132 -111.375378    0.000245   8.672    0.00015    0.00061
        705    35 -111.375132 -111.375381    0.000249   8.672    0.00015    0.00061
        706    35 -111.375132 -111.375385    0.000254   8.672    0.00015    0.00061
        707    35 -111.375131 -111.375390    0.000259   8.672    0.00015    0.00060
        708    35 -111.375131 -111.375396    0.000265   8.672    0.00014    0.00060
        709    35 -111.375130 -111.375401    0.000271   8.672    0.00014    0.00060
        710    35 -111.375130 -111.375407    0.000277   8.672    0.00014    0.00059
        711    35 -111.375129 -111.375413    0.000283   8.672    0.00014    0.00059
        712    35 -111.375129 -111.375418    0.000290   8.672    0.00014    0.00059
        713    35 -111.375128 -111.375424    0.000296   8.672    0.00014    0.00058
        714    35 -111.375128 -111.375429    0.000301   8.672    0.00014    0.00058
        715    35 -111.375127 -111.375434    0.000307   8.672    0.00014    0.00057
        716    35 -111.375126 -111.375438    0.000312   8.672    0.00014    0.00057
        717    35 -111.375126 -111.375442    0.000316   8.672    0.00014    0.00057
        718    35 -111.375125 -111.375445    0.000320   8.672    0.00014    0.00056
        719    35 -111.375125 -111.375448    0.000323   8.672    0.00014    0.00056
        720    35 -111.375124 -111.375450    0.000326   8.672    0.00014    0.00056
        721    35 -111.375123 -111.375451    0.000328   8.672    0.00013    0.00055
        722    35 -111.375123 -111.375451    0.000329   8.672    0.00013    0.00055
        723    35 -111.375122 -111.375451    0.000329   8.672    0.00013    0.00055
        724    35 -111.375121 -111.375450    0.000329   8.672    0.00013    0.00054
        725    35 -111.375121 -111.375449    0.000328   8.672    0.00013    0.00054
        726    35 -111.375120 -111.375447    0.000326   8.672    0.00013    0.00054
        727    35 -111.375119 -111.375444    0.000324   8.672    0.00013    0.00053
        728    35 -111.375119 -111.375440    0.000321   8.672    0.00013    0.00053
        729    35 -111.375118 -111.375436    0.000318   8.672    0.00013    0.00053
        730    35 -111.375118 -111.375432    0.000314   8.672    0.00013    0.00052
        731    35 -111.375117 -111.375427    0.000310   8.672    0.00013    0.00052
        732    35 -111.375117 -111.375422    0.000306   8.672    0.00013    0.00052
        733    35 -111.375116 -111.375417    0.000301   8.672    0.00013    0.00052
        734    35 -111.375115 -111.375411    0.000296   8.672    0.00013    0.00051
        735    35 -111.375115 -111.375406    0.000291   8.672    0.00013    0.00051
        736    35 -111.375114 -111.375403    0.000289   8.672    0.00012    0.00051
        737    35 -111.375114 -111.375397    0.000283   8.672    0.00012    0.00050
        738    35 -111.375113 -111.375391    0.000277   8.672    0.00012    0.00050
        739    35 -111.375113 -111.375388    0.000275   8.672    0.00012    0.00050
        740    35 -111.375112 -111.375382    0.000270   8.672    0.00012    0.00049
        741    35 -111.375112 -111.375375    0.000263   8.672    0.00012    0.00049
        742    35 -111.375111 -111.375368    0.000257   8.672    0.00012    0.00049
        743    35 -111.375111 -111.375361    0.000250   8.672    0.00012    0.00048
        744    35 -111.375110 -111.375354    0.000244   8.672    0.00012    0.00048
        745    35 -111.375110 -111.375348    0.000238   8.672    0.00012    0.00048
        746    35 -111.375110 -111.375341    0.000232   8.672    0.00012    0.00048
        747    35 -111.375109 -111.375335    0.000226   8.672    0.00012    0.00047
        748    35 -111.375109 -111.375329    0.000220   8.672    0.00012    0.00047
        749    35 -111.375108 -111.375324    0.000215   8.672    0.00012    0.00047
        750    35 -111.375108 -111.375318    0.000210   8.672    0.00012    0.00046
        751    35 -111.375108 -111.375314    0.000206   8.672    0.00012    0.00046
        752    35 -111.375107 -111.375309    0.000202   8.672    0.00011    0.00046
        753    35 -111.375107 -111.375305    0.000197   8.672    0.00011    0.00046
        754    35 -111.375107 -111.375301    0.000194   8.672    0.00011    0.00045
        755    35 -111.375106 -111.375297    0.000190   8.672    0.00011    0.00045
        756    35 -111.375106 -111.375293    0.000187   8.672    0.00011    0.00045
        757    35 -111.375106 -111.375290    0.000184   8.672    0.00011    0.00044
        758    35 -111.375105 -111.375287    0.000181   8.672    0.00011    0.00044
        759    35 -111.375105 -111.375284    0.000179   8.672    0.00011    0.00044
        760    35 -111.375105 -111.375281    0.000176   8.672    0.00011    0.00044
        761    35 -111.375104 -111.375278    0.000174   8.672    0.00011    0.00043
        762    35 -111.375104 -111.375276    0.000172   8.672    0.00011    0.00043
        763    35 -111.375104 -111.375274    0.000170   8.672    0.00011    0.00043
        764    35 -111.375103 -111.375271    0.000168   8.672    0.00011    0.00042
        765    35 -111.375103 -111.375269    0.000167   8.672    0.00011    0.00042
        766    35 -111.375102 -111.375268    0.000165   8.672    0.00011    0.00042
        767    35 -111.375102 -111.375266    0.000164   8.672    0.00011    0.00042
        768    35 -111.375102 -111.375265    0.000163   8.672    0.00011    0.00041
        769    35 -111.375101 -111.375263    0.000162   8.672    0.00011    0.00041
        770    35 -111.375101 -111.375262    0.000161   8.672    0.00011    0.00041
        771    35 -111.375101 -111.375261    0.000160   8.672    0.00010    0.00041
        772    35 -111.375100 -111.375260    0.000160   8.672    0.00010    0.00040
        773    35 -111.375100 -111.375259    0.000159   8.672    0.00010    0.00040
        774    35 -111.375099 -111.375258    0.000158   8.672    0.00010    0.00040
        775    35 -111.375099 -111.375257    0.000158   8.672    0.00010    0.00040
        776    35 -111.375099 -111.375255    0.000157   8.672    0.00010    0.00039
        777    35 -111.375098 -111.375254    0.000156   8.672    0.00010    0.00039
        778    35 -111.375098 -111.375253    0.000155   8.672    0.00010    0.00039
        779    35 -111.375097 -111.375251    0.000154   8.672    0.00010    0.00039
        780    35 -111.375097 -111.375249    0.000153   8.672    0.00010    0.00038
[...]
                beta    6 ->  10             -0.945102
                beta   10 ->   6             -0.518584
                alpha  10 ->   6              0.518294
                beta    9 ->   4             -0.410308
                alpha   9 ->   4              0.410222
                alpha   4 ->  10              0.252967
                beta    4 ->  10             -0.252947
                beta    9 ->   5              0.198241
                alpha   9 ->   5             -0.198142
                alpha   3 ->  10             -0.154589
                beta    3 ->  10              0.154571
                alpha   5 ->  10             -0.117553
                beta    5 ->  10              0.117544
                alpha   1 ->   9              0.074950
                beta    1 ->   9             -0.074946

       10    -109.685326704888       1.689689842123      45.978792376154       0.009685698963
                Transition Moment: X:   0.000000    Y:   0.092727   Z:   0.000000
                beta    4 ->   9              3.311643
                alpha   4 ->   9              3.311326
                beta    5 ->   9             -2.519150
                alpha   5 ->   9             -2.518945
                beta    6 ->  10              1.384650
                alpha   6 ->  10              1.384562
                beta   10 ->   6             -1.265978
                alpha  10 ->   6             -1.265978
                beta    3 ->   9              0.760255
                alpha   3 ->   9              0.760180
                alpha   9 ->   5              0.586908
                beta    9 ->   5              0.586884
                alpha   9 ->   4             -0.521157
                beta    9 ->   4             -0.521120
                alpha   9 ->   3             -0.373245
                beta    9 ->   3             -0.373179
                beta    4 ->  10              0.263844
                alpha   4 ->  10              0.263824
                beta    3 ->  10             -0.193766
                alpha   3 ->  10             -0.193757

       11    -109.301262434792       2.073754112220      56.429711174172       0.000000000002
                Transition Moment: X:   0.000000    Y:  -0.000001   Z:   0.000000
                alpha  10 ->   6             -3.800692
                beta   10 ->   6              3.799451
                beta    3 ->   9              1.913125
                alpha   3 ->   9             -1.912757
                alpha   9 ->   5              1.213154
                beta    9 ->   5             -1.212764
                alpha   9 ->   3             -0.754965
                beta    9 ->   3              0.754540
                beta    6 ->  10              0.650244
                alpha   6 ->  10             -0.650051
                alpha   9 ->   4             -0.573342
                beta    9 ->   4              0.573123
                alpha   9 ->   6              0.172744
                beta    9 ->   6             -0.172688
                beta    5 ->   9             -0.161161
                alpha   5 ->   9              0.161051
                beta    3 ->  10              0.120537
                alpha   3 ->  10             -0.120491
                alpha  10 ->   5              0.111613
                beta   10 ->   5             -0.111578

       12    -109.278984200525       2.096032346487      57.035932672539       0.000201713057
                Transition Moment: X:   0.000000    Y:  -0.012015   Z:   0.000000
                beta   10 ->   6             -4.192139
                alpha  10 ->   6             -4.191015
                beta    9 ->   3             -1.449753
                alpha   9 ->   3             -1.449501
                beta    9 ->   5              1.360116
                alpha   9 ->   5              1.359735
                alpha   4 ->   9             -1.010943
                beta    4 ->   9             -1.010767
                beta    9 ->   4             -0.832989
                alpha   9 ->   4             -0.832834
                alpha   3 ->   9              0.813479
                beta    3 ->   9              0.812874
                alpha   6 ->  10              0.431820
                beta    6 ->  10              0.431652
                beta    9 ->   6              0.188316
                alpha   9 ->   6              0.188264
                beta    5 ->   9             -0.174551
                alpha   5 ->   9             -0.174540
                beta   10 ->   5              0.121525
                alpha  10 ->   5              0.121491

       13    -109.025154201985       2.349862345026      63.942997218194       0.000000000001
                Transition Moment: X:   0.000000    Y:  -0.000001   Z:   0.000000
                alpha   3 ->   9             -3.757905
                beta    3 ->   9              3.757866
                alpha  10 ->   6              1.816035
                beta   10 ->   6             -1.816028
                alpha   5 ->   9              0.868827
                beta    5 ->   9             -0.868739
                alpha   4 ->   9             -0.639792
                beta    4 ->   9              0.639708
                alpha   9 ->   5             -0.574314
                beta    9 ->   5              0.574264
                alpha   6 ->  10             -0.552569
                beta    6 ->  10              0.552530
                alpha   9 ->   4              0.235716
                beta    9 ->   4             -0.235659
                alpha   3 ->  10             -0.168238
                beta    3 ->  10              0.168237
                beta    9 ->   3             -0.098636
                alpha   9 ->   3              0.098622
                beta    9 ->   6              0.071451
                alpha   9 ->   6             -0.071451

       14    -108.778993843726       2.596022703286      70.641360267733       0.004944429885
                Transition Moment: X:   0.000000    Y:   0.053450   Z:   0.000000
                alpha   3 ->   9              4.216731
                beta    3 ->   9              4.216711
                alpha   6 ->  10              1.337471
                beta    6 ->  10              1.337466
                beta    5 ->   9             -1.120285
                alpha   5 ->   9             -1.120260
                alpha  10 ->   6              0.841319
                beta   10 ->   6              0.841180
                alpha   4 ->   9              0.375983
                beta    4 ->   9              0.375957
                alpha   9 ->   4              0.288655
                beta    9 ->   4              0.288574
                alpha   3 ->  10              0.241800
                beta    3 ->  10              0.241798
                alpha   9 ->   5             -0.147824
                beta    9 ->   5             -0.147750
                alpha   9 ->   3              0.137971
                beta    9 ->   3              0.137945
                alpha   6 ->   9             -0.077572
                beta    6 ->   9             -0.077572

       15    -107.159840333473       4.215176213539     114.700761713568       0.000000000000
                Transition Moment: X:   0.000000    Y:  -0.000000   Z:   0.000000
                beta    5 ->   9              5.915169
                alpha   5 ->   9             -5.915005
                beta    4 ->   9              2.460624
                alpha   4 ->   9             -2.460526
                alpha   9 ->   5             -1.005087
                beta    9 ->   5              1.005058
                beta    6 ->  10             -0.564119
                alpha   6 ->  10              0.564114
                alpha   9 ->   4             -0.479972
                beta    9 ->   4              0.479952
                beta    3 ->   9              0.268808
                alpha   3 ->   9             -0.268775
                alpha  10 ->   6              0.197839
                beta   10 ->   6             -0.197829
                beta    2 ->   9              0.161249
                alpha   2 ->   9             -0.161244
                beta    6 ->   9              0.135267
                alpha   6 ->   9             -0.135264
                beta    5 ->  10              0.105646
                alpha   5 ->  10             -0.105644

       16    -106.913436075635       4.461580471377     121.405761607206       0.000014447903
                Transition Moment: X:   0.000000    Y:   0.002204   Z:   0.000000
                alpha   5 ->   9              5.665740
                beta    5 ->   9              5.665555
                alpha   4 ->   9              2.650949
                beta    4 ->   9              2.650882
                beta    9 ->   5             -0.903551
                alpha   9 ->   5             -0.903520
                alpha   3 ->   9              0.599214
                beta    3 ->   9              0.599194
                beta    9 ->   4             -0.535945
                alpha   9 ->   4             -0.535932
                alpha  10 ->   6             -0.317235
                beta   10 ->   6             -0.317218
                alpha   6 ->  10             -0.187582
                beta    6 ->  10             -0.187562
                alpha   2 ->   9              0.179253
                beta    2 ->   9              0.179247
                beta    9 ->   3             -0.137295
                alpha   9 ->   3             -0.137288
                alpha   6 ->   9              0.113396
                beta    6 ->   9              0.113392

       17    -100.771671075802      10.603345471209     288.531662888359       0.000000000022
                Transition Moment: X:   0.000000    Y:   0.000002   Z:   0.000000
                beta    2 ->   9             -1.082113
                alpha   2 ->   9              1.082071
                beta    2 ->  10             -0.717333
                alpha   2 ->  10              0.717310
                beta    5 ->   9              0.092443
                alpha   5 ->   9             -0.092440
                beta    4 ->   9              0.038345
                alpha   4 ->   9             -0.038343
                alpha   9 ->   5             -0.021878
                beta    9 ->   5              0.021877
                beta    3 ->   9              0.019479
                alpha   3 ->   9             -0.019478
                beta    5 ->  10              0.015202
                alpha   5 ->  10             -0.015201
                alpha   9 ->   4             -0.011995
                beta    9 ->   4              0.011995
                beta    6 ->  10             -0.009543
                alpha   6 ->  10              0.009543
                beta    3 ->  10              0.007858
                alpha   3 ->  10             -0.007858

       18    -100.753879533920      10.621137013092     289.015795295302       0.085407860300
                Transition Moment: X:   0.000000    Y:  -0.109827   Z:   0.000000
                alpha   2 ->   9              1.178891
                beta    2 ->   9              1.178861
                alpha   2 ->  10              0.713903
                beta    2 ->  10              0.713880
                alpha   5 ->   9             -0.078651
                beta    5 ->   9             -0.078648
                alpha   4 ->   9             -0.032534
                beta    4 ->   9             -0.032533
                alpha   3 ->   9             -0.020482
                beta    3 ->   9             -0.020481
                alpha   5 ->  10             -0.016449
                beta    5 ->  10             -0.016448
                beta    9 ->   5              0.013473
                alpha   9 ->   5              0.013473
                beta    9 ->   4              0.008544
                alpha   9 ->   4              0.008544
                alpha   3 ->  10             -0.008357
                beta    3 ->  10             -0.008357
                alpha  10 ->   6              0.005550
                beta   10 ->   6              0.005550

       19     -99.790550772893      11.584465774119     315.229300276534       0.000000000000
                Transition Moment: X:   0.000000    Y:  -0.000000   Z:   0.000000
                beta    2 ->   9             -3.722899
                alpha   2 ->   9              3.722839
                beta    5 ->   9              0.241274
                alpha   5 ->   9             -0.241271
                beta    2 ->  10              0.121494
                alpha   2 ->  10             -0.121491
                beta    4 ->   9              0.078655
                alpha   4 ->   9             -0.078653
                alpha   9 ->   5             -0.051194
                beta    9 ->   5              0.051193
                beta    3 ->   9              0.042832
                alpha   3 ->   9             -0.042831
                beta    6 ->  10             -0.029766
                alpha   6 ->  10              0.029765
                alpha   9 ->   4             -0.029562
                beta    9 ->   4              0.029562
                alpha   9 ->   2              0.009259
                beta    9 ->   2             -0.009259
                beta    9 ->   3              0.009154
                alpha   9 ->   3             -0.009154

       20     -99.750908668037      11.624107878975     316.308016655776       0.003376898888
                Transition Moment: X:   0.000000    Y:   0.020875   Z:   0.000000
                alpha   2 ->   9              3.692589
                beta    2 ->   9              3.692526
                alpha   5 ->   9             -0.260817
                beta    5 ->   9             -0.260813
                alpha   2 ->  10             -0.140055
                beta    2 ->  10             -0.140054
                alpha   4 ->   9             -0.097776
                beta    4 ->   9             -0.097774
                beta    9 ->   5              0.055928
                alpha   9 ->   5              0.055927
                alpha   3 ->   9             -0.054833
                beta    3 ->   9             -0.054833
                beta    9 ->   4              0.032177
                alpha   9 ->   4              0.032176
                beta    9 ->   3              0.009884
                alpha   9 ->   3              0.009883
                alpha  10 ->   6              0.009866
                beta   10 ->   6              0.009865
                beta    9 ->   2             -0.009185
                alpha   9 ->   2             -0.009185

       21     -91.501753245633      19.873263301378     540.778919533861       0.040693894982
                Transition Moment: X:   0.000000    Y:  -0.055421   Z:   0.000000
                alpha   1 ->   9             -2.022551
                beta    1 ->   9             -2.022346
                alpha   1 ->  10              0.572971
                beta    1 ->  10              0.572911
                alpha   3 ->   9             -0.044764
                beta    3 ->   9             -0.044760
                alpha   4 ->   9              0.041225
                beta    4 ->   9              0.041221
                alpha   3 ->  10              0.011440
                beta    3 ->  10              0.011439
                alpha   4 ->  10             -0.010882
                beta    4 ->  10             -0.010881
                alpha   5 ->   9             -0.010082
                beta    5 ->   9             -0.010081

       22     -91.495122544705      19.879894002306     540.959350056481       0.000000000109
                Transition Moment: X:   0.000000    Y:  -0.000003   Z:   0.000000
                beta    1 ->   9             -1.983003
                alpha   1 ->   9              1.982795
                beta    1 ->  10              0.578264
                alpha   1 ->  10             -0.578205
                beta    3 ->   9             -0.045005
                alpha   3 ->   9              0.045001
                beta    4 ->   9              0.043458
                alpha   4 ->   9             -0.043454
                beta    3 ->  10              0.011535
                alpha   3 ->  10             -0.011534
                beta    5 ->   9             -0.010868
                alpha   5 ->   9              0.010867
                beta    4 ->  10             -0.010629
                alpha   4 ->  10              0.010628
                alpha   6 ->  10             -0.007331
                beta    6 ->  10              0.007331

       23     -90.271021064266      21.103995482745     574.268840599255       0.000000000001
                Transition Moment: X:   0.000000    Y:  -0.000000   Z:   0.000000
                beta    1 ->   9              3.333833
                alpha   1 ->   9             -3.333736
                beta    1 ->  10              0.441431
                alpha   1 ->  10             -0.441418
                beta    4 ->   9             -0.065185
                alpha   4 ->   9              0.065182
                beta    3 ->   9              0.064104
                alpha   3 ->   9             -0.064102
                beta    5 ->   9              0.025240
                alpha   5 ->   9             -0.025240
                alpha   6 ->  10              0.011604
                beta    6 ->  10             -0.011603
                beta    4 ->  10             -0.007787
                alpha   4 ->  10              0.007787
                beta    3 ->  10              0.007318
                alpha   3 ->  10             -0.007318
                alpha   9 ->   3             -0.005574
                beta    9 ->   3              0.005574

       24     -90.217579606880      21.157436940131     575.723056403952       0.004411276585
                Transition Moment: X:   0.000000    Y:   0.017685   Z:   0.000000
                alpha   1 ->   9             -3.309785
                beta    1 ->   9             -3.309687
                alpha   1 ->  10             -0.448225
                beta    1 ->  10             -0.448212
                alpha   3 ->   9             -0.073462
                beta    3 ->   9             -0.073460
                alpha   4 ->   9              0.069539
                beta    4 ->   9              0.069538
                alpha   5 ->   9             -0.016378
                beta    5 ->   9             -0.016377
                alpha   3 ->  10             -0.009203
                beta    3 ->  10             -0.009203
                alpha   4 ->  10              0.008822
                beta    4 ->  10              0.008822
                alpha   9 ->   4             -0.006605
                beta    9 ->   4             -0.006605
                beta    9 ->   3              0.005854
                alpha   9 ->   3              0.005854


    ==> ERPA correlation information: <==

        Tr(D2aa):                 49.000000004513
        Tr(D2bb):                 42.000000004143
        Tr(D2ab):                 42.000000004239

        * ERPA total energy:    -111.491548136161
        * AC total energy:      -111.375016547011


*** tstop() called on ed4 at Thu Feb 22 18:43:08 2018
Module time:
	user time   =       0.66 seconds =       0.01 minutes
	system time =       0.02 seconds =       0.00 minutes
	total time  =          0 seconds =       0.00 minutes
Total time:
	user time   =     253.73 seconds =       4.23 minutes
	system time =       9.80 seconds =       0.16 minutes
	total time  =         44 seconds =       0.73 minutes

*** Psi4 exiting successfully. Buy a developer a beer!
